 VARIABLES="X","Y","U","V","P"
 ZONE F=POINT, I=          16 , J=          16
   3.12500000E-02   3.12500000E-02   1.07664673E-03  -1.07967074E-03   8.35641567E-03
   9.37500000E-02   3.12500000E-02   1.50232180E-03   6.46867440E-04   8.11773445E-03
  0.156250000       3.12500000E-02  -1.84321892E-03   2.69089220E-03   7.73597835E-03
  0.218750000       3.12500000E-02  -9.01546888E-03   4.47451416E-03   7.28601310E-03
  0.281250000       3.12500000E-02  -1.93384010E-02   5.84264053E-03   6.83419453E-03
  0.343750000       3.12500000E-02  -3.17758210E-02   6.59010187E-03   6.46089949E-03
  0.406250000       3.12500000E-02  -4.49337065E-02   6.56411611E-03   6.28031045E-03
  0.468750000       3.12500000E-02  -5.72001263E-02   5.69936028E-03   6.44245045E-03
  0.531250000       3.12500000E-02  -6.69009909E-02   3.99875268E-03   7.11036520E-03
  0.593750000       3.12500000E-02  -7.24055171E-02   1.50247745E-03   8.41206685E-03
  0.656250000       3.12500000E-02  -7.21485987E-02  -1.76398177E-03   1.03649274E-02
  0.718750000       3.12500000E-02  -6.45174906E-02  -5.87351248E-03   1.25371646E-02
  0.781250000       3.12500000E-02  -4.89500165E-02  -9.70218237E-03   1.43939601E-02
  0.843750000       3.12500000E-02  -2.76682563E-02  -1.15890531E-02   1.52837411E-02
  0.906250000       3.12500000E-02  -7.35169556E-03  -8.73725861E-03   1.50309270E-02
  0.968750000       3.12500000E-02   6.90376386E-04   6.87402557E-04   1.43935662E-02
   3.12500000E-02   9.37500000E-02  -2.32796231E-03   1.63990655E-04   8.59426148E-03
   9.37500000E-02   9.37500000E-02  -1.06777363E-02   7.30989268E-03   8.33130535E-03
  0.156250000       9.37500000E-02  -2.49114949E-02   1.35887116E-02   7.95652065E-03
  0.218750000       9.37500000E-02  -4.25048880E-02   1.83262452E-02   7.47846253E-03
  0.281250000       9.37500000E-02  -6.15806133E-02   2.13762056E-02   6.94070384E-03
  0.343750000       9.37500000E-02  -8.04729536E-02   2.23758072E-02   6.42879773E-03
  0.406250000       9.37500000E-02  -9.75685120E-02   2.10240446E-02   6.07375707E-03
  0.468750000       9.37500000E-02 -0.111260518       1.71920229E-02   6.04745466E-03
  0.531250000       9.37500000E-02 -0.119965971       1.09072542E-02   6.53427327E-03
  0.593750000       9.37500000E-02 -0.122169629       2.29600980E-03   7.67407101E-03
  0.656250000       9.37500000E-02 -0.116467372      -8.52556434E-03   9.40222479E-03
  0.718750000       9.37500000E-02 -0.102375373      -2.08479017E-02   1.14822546E-02
  0.781250000       9.37500000E-02  -8.05959553E-02  -3.20917889E-02   1.33447107E-02
  0.843750000       9.37500000E-02  -5.30812666E-02  -3.80160846E-02   1.43589340E-02
  0.906250000       9.37500000E-02  -2.44969018E-02  -3.12323347E-02   1.43100806E-02
  0.968750000       9.37500000E-02  -5.37241390E-03  -4.00170172E-03   1.38099305E-02
   3.12500000E-02  0.156250000      -6.24480844E-03   8.72710813E-03   8.90562031E-03
   9.37500000E-02  0.156250000      -2.19642669E-02   2.27947347E-02   8.51918757E-03
  0.156250000      0.156250000      -4.18722332E-02   3.22238915E-02   8.01489223E-03
  0.218750000      0.156250000      -6.29225150E-02   3.83164734E-02   7.34337512E-03
  0.281250000      0.156250000      -8.36793929E-02   4.12043147E-02   6.53544627E-03
  0.343750000      0.156250000     -0.102822624       4.05732319E-02   5.69255464E-03
  0.406250000      0.156250000     -0.119049370       3.61427963E-02   4.97947400E-03
  0.468750000      0.156250000     -0.131106138       2.78188176E-02   4.60579339E-03
  0.531250000      0.156250000     -0.137834325       1.57121941E-02   4.78363037E-03
  0.593750000      0.156250000     -0.138251618       1.09459215E-04   5.65610593E-03
  0.656250000      0.156250000     -0.131725103      -1.85730550E-02   7.23687280E-03
  0.718750000      0.156250000     -0.117966481      -3.86606641E-02   9.34586395E-03
  0.781250000      0.156250000      -9.69877839E-02  -5.70516810E-02   1.14507945E-02
  0.843750000      0.156250000      -6.95213526E-02  -6.80559427E-02   1.28985085E-02
  0.906250000      0.156250000      -3.81397307E-02  -6.11792319E-02   1.32788206E-02
  0.968750000      0.156250000      -1.09777767E-02  -2.03596111E-02   1.29140820E-02
   3.12500000E-02  0.218750000      -7.96218775E-03   2.29239408E-02   8.89452081E-03
   9.37500000E-02  0.218750000      -2.66873334E-02   4.30204421E-02   8.37468076E-03
  0.156250000      0.218750000      -4.84256223E-02   5.36227897E-02   7.64333736E-03
  0.218750000      0.218750000      -6.99633062E-02   5.94886877E-02   6.65064948E-03
  0.281250000      0.218750000      -9.02280137E-02   6.10423386E-02   5.44668827E-03
  0.343750000      0.218750000     -0.108319730       5.79644591E-02   4.16083634E-03
  0.406250000      0.218750000     -0.123338848       4.99967858E-02   2.99315853E-03
  0.468750000      0.218750000     -0.134415358       3.71011198E-02   2.18798011E-03
  0.531250000      0.218750000     -0.140746012       1.94936059E-02   1.98233523E-03
  0.593750000      0.218750000     -0.141654253      -2.34181574E-03   2.52904510E-03
  0.656250000      0.218750000     -0.136672795      -2.76276395E-02   3.94669967E-03
  0.718750000      0.218750000     -0.125308335      -5.47314100E-02   6.12015696E-03
  0.781250000      0.218750000     -0.106910989      -8.03644434E-02   8.58760253E-03
  0.843750000      0.218750000      -8.10369402E-02  -9.80960578E-02   1.06729213E-02
  0.906250000      0.218750000      -4.84782197E-02  -9.50954109E-02   1.17150210E-02
  0.968750000      0.218750000      -1.53774237E-02  -4.67213392E-02   1.16035352E-02
   3.12500000E-02  0.281250000      -7.73507170E-03   3.86113524E-02   8.25855043E-03
   9.37500000E-02  0.281250000      -2.59812679E-02   6.42833114E-02   7.64557347E-03
  0.156250000      0.281250000      -4.69698161E-02   7.50671178E-02   6.68155495E-03
  0.218750000      0.281250000      -6.72816113E-02   7.98803940E-02   5.34772454E-03
  0.281250000      0.281250000      -8.60083997E-02   7.96356574E-02   3.72593245E-03
  0.343750000      0.281250000     -0.102575637       7.40305558E-02   1.97527464E-03
  0.406250000      0.281250000     -0.116426975       6.28075674E-02   3.25412140E-04
  0.468750000      0.281250000     -0.126990438       4.59409542E-02  -9.50715796E-04
  0.531250000      0.281250000     -0.133677274       2.36840062E-02  -1.58970419E-03
  0.593750000      0.281250000     -0.135919243      -3.36942356E-03  -1.41405594E-03
  0.656250000      0.281250000     -0.133274436      -3.42162177E-02  -2.28004123E-04
  0.718750000      0.281250000     -0.125133201      -6.76428825E-02   1.96535420E-03
  0.781250000      0.281250000     -0.110349640     -0.100633718       4.79405979E-03
  0.843750000      0.281250000      -8.73838514E-02 -0.126672000       7.58400327E-03
  0.906250000      0.281250000      -5.53453863E-02 -0.131126702       9.42745712E-03
  0.968750000      0.281250000      -1.85217280E-02  -8.06253701E-02   9.69316624E-03
   3.12500000E-02  0.343750000      -6.24283636E-03   5.25807366E-02   6.98161032E-03
   9.37500000E-02  0.343750000      -2.16876119E-02   8.39870274E-02   6.32934412E-03
  0.156250000      0.343750000      -4.01161313E-02   9.47649479E-02   5.18393284E-03
  0.218750000      0.343750000      -5.79191409E-02   9.82889533E-02   3.56358429E-03
  0.281250000      0.343750000      -7.42092058E-02   9.62435305E-02   1.57697906E-03
  0.343750000      0.343750000      -8.86344239E-02   8.84224772E-02  -5.95145684E-04
  0.406250000      0.343750000     -0.100913212       7.45595694E-02  -2.70242058E-03
  0.468750000      0.343750000     -0.110727876       5.45852706E-02  -4.44783410E-03
  0.531250000      0.343750000     -0.117683217       2.87020113E-02  -5.53598208E-03
  0.593750000      0.343750000     -0.121322602      -2.48641218E-03  -5.74726891E-03
  0.656250000      0.343750000     -0.121266603      -3.77831459E-02  -4.86466987E-03
  0.718750000      0.343750000     -0.116919093      -7.65523016E-02  -2.75500678E-03
  0.781250000      0.343750000     -0.106771789     -0.116648197       3.17692698E-04
  0.843750000      0.343750000      -8.82085115E-02 -0.152185321       3.73242353E-03
  0.906250000      0.343750000      -5.86212799E-02 -0.167242944       6.39386522E-03
  0.968750000      0.343750000      -2.04050206E-02 -0.119555041       7.12378835E-03
   3.12500000E-02  0.406250000      -4.07037558E-03   6.28874153E-02   5.27547300E-03
   9.37500000E-02  0.406250000      -1.53496768E-02  0.100391105       4.62906109E-03
  0.156250000      0.406250000      -2.99944375E-02  0.111423910       3.37328156E-03
  0.218750000      0.406250000      -4.42985334E-02  0.113734335       1.55710266E-03
  0.281250000      0.406250000      -5.72939441E-02  0.110089310      -6.96369039E-04
  0.343750000      0.406250000      -6.87747449E-02  0.100496471      -3.19762109E-03
  0.406250000      0.406250000      -7.86990225E-02   8.47089142E-02  -5.68617182E-03
  0.468750000      0.406250000      -8.70252401E-02   6.26011938E-02  -7.84656219E-03
  0.531250000      0.406250000      -9.36392844E-02   3.42812575E-02  -9.34932195E-03
  0.593750000      0.406250000      -9.83286649E-02   2.87744449E-04  -9.92364809E-03
  0.656250000      0.406250000     -0.100833401      -3.80872265E-02  -9.38326214E-03
  0.718750000      0.406250000     -0.100693524      -8.07188526E-02  -7.48532359E-03
  0.781250000      0.406250000      -9.61891562E-02 -0.127121642      -4.37117228E-03
  0.843750000      0.406250000      -8.35856646E-02 -0.172872245      -5.37430809E-04
  0.906250000      0.406250000      -5.84312677E-02 -0.201296151       2.83844583E-03
  0.968750000      0.406250000      -2.10948456E-02 -0.161055952       4.06616740E-03
   3.12500000E-02  0.468750000      -1.73316943E-03   6.86865002E-02   3.42989620E-03
   9.37500000E-02  0.468750000      -8.27973709E-03  0.112409219       2.83252005E-03
  0.156250000      0.468750000      -1.83983780E-02  0.124164045       1.54602574E-03
  0.218750000      0.468750000      -2.85343938E-02  0.125436574      -3.56672099E-04
  0.281250000      0.468750000      -3.75476144E-02  0.120406397      -2.75080767E-03
  0.343750000      0.468750000      -4.53148112E-02  0.109446049      -5.45072090E-03
  0.406250000      0.468750000      -5.20030856E-02   9.23967808E-02  -8.19613878E-03
  0.468750000      0.468750000      -5.78691736E-02   6.91340566E-02  -1.06612518E-02
  0.531250000      0.468750000      -6.31938577E-02   3.97160798E-02  -1.24879191E-02
  0.593750000      0.468750000      -6.82002753E-02   4.57558502E-03  -1.33517273E-02
  0.656250000      0.468750000      -7.29109645E-02  -3.51368114E-02  -1.31419562E-02
  0.718750000      0.468750000      -7.71693736E-02  -7.95326084E-02  -1.15704667E-02
  0.781250000      0.468750000      -7.91654438E-02 -0.130802542      -8.65155365E-03
  0.843750000      0.468750000      -7.39732981E-02 -0.186977744      -4.67961095E-03
  0.906250000      0.468750000      -5.51120676E-02 -0.231201261      -7.76843983E-04
  0.968750000      0.468750000      -2.07235143E-02 -0.202873975       9.34543961E-04
   3.12500000E-02  0.531250000       2.55183462E-04   7.01616853E-02   1.69029739E-03
   9.37500000E-02  0.531250000      -1.68560201E-03  0.119416282       1.21415069E-03
  0.156250000      0.531250000      -6.90330239E-03  0.132491797      -1.77732963E-05
  0.218750000      0.531250000      -1.25395879E-02  0.132886708      -1.88417966E-03
  0.281250000      0.531250000      -1.71646290E-02  0.126608282      -4.27640462E-03
  0.343750000      0.531250000      -2.06989534E-02  0.114567086      -7.02247024E-03
  0.406250000      0.531250000      -2.34785341E-02   9.67708156E-02  -9.86943208E-03
  0.468750000      0.531250000      -2.60064080E-02   7.31841400E-02  -1.24891242E-02
  0.531250000      0.531250000      -2.89610233E-02   4.39750627E-02  -1.45082641E-02
  0.593750000      0.531250000      -3.32249850E-02   9.61357169E-03  -1.55652361E-02
  0.656250000      0.531250000      -3.93957086E-02  -2.92715672E-02  -1.56031596E-02
  0.718750000      0.531250000      -4.78081964E-02  -7.27098584E-02  -1.44232903E-02
  0.781250000      0.531250000      -5.67434207E-02 -0.126680881      -1.19028874E-02
  0.843750000      0.531250000      -6.00829124E-02 -0.192942575      -8.06923397E-03
  0.906250000      0.531250000      -4.91028354E-02 -0.255071640      -3.83294700E-03
  0.968750000      0.531250000      -1.94476247E-02 -0.243044198      -1.66073162E-03
   3.12500000E-02  0.593750000       1.71505194E-03   6.81895912E-02   2.67239579E-04
   9.37500000E-02  0.593750000       3.52308992E-03  0.121517897      -9.21379033E-05
  0.156250000      0.593750000       2.97286361E-03  0.136158124      -1.12109911E-03
  0.218750000      0.593750000       2.01057456E-03  0.135825455      -2.81236018E-03
  0.281250000      0.593750000       1.95399625E-03  0.128365383      -5.05789742E-03
  0.343750000      0.593750000       2.87443865E-03  0.115445495      -7.70120090E-03
  0.406250000      0.593750000       4.26302664E-03   9.73106101E-02  -1.04980776E-02
  0.468750000      0.593750000       5.41821262E-03   7.40468502E-02  -1.31219905E-02
  0.531250000      0.593750000       5.46272937E-03   4.60513681E-02  -1.51990717E-02
  0.593750000      0.593750000       3.00914515E-03   1.42798154E-02  -1.63602680E-02
  0.656250000      0.593750000      -3.53126670E-03  -2.12068968E-02  -1.65287890E-02
  0.718750000      0.593750000      -1.50775025E-02  -6.08007386E-02  -1.57328211E-02
  0.781250000      0.593750000      -3.03709507E-02 -0.114350185      -1.36919199E-02
  0.843750000      0.593750000      -4.26669903E-02 -0.189630002      -1.01653831E-02
  0.906250000      0.593750000      -4.07478511E-02 -0.271278679      -5.65977721E-03
  0.968750000      0.593750000      -1.73733663E-02 -0.279864609      -2.96164793E-03
   3.12500000E-02  0.656250000       2.49823020E-03   6.39745817E-02  -7.74057640E-04
   9.37500000E-02  0.656250000       6.79587945E-03  0.119624004      -9.92390793E-04
  0.156250000      0.656250000       1.02074668E-02  0.135189980      -1.72264432E-03
  0.218750000      0.656250000       1.39257070E-02  0.134042710      -3.09375557E-03
  0.281250000      0.656250000       1.86718442E-02  0.125470877      -5.08282799E-03
  0.343750000      0.656250000       2.41387505E-02  0.111972176      -7.54268700E-03
  0.406250000      0.656250000       2.94984207E-02   9.40608531E-02  -1.02132205E-02
  0.468750000      0.656250000       3.37330773E-02   7.19347298E-02  -1.27428202E-02
  0.531250000      0.656250000       3.57258171E-02   4.61533703E-02  -1.47394855E-02
  0.593750000      0.656250000       3.44057605E-02   1.79745220E-02  -1.58625785E-02
  0.656250000      0.656250000       2.85375901E-02  -1.24750119E-02  -1.59314480E-02
  0.718750000      0.656250000       1.70347001E-02  -4.64702994E-02  -1.53223183E-02
  0.781250000      0.656250000      -1.73221994E-03  -9.46118683E-02  -1.38945337E-02
  0.843750000      0.656250000      -2.21289825E-02 -0.176671162      -1.06377723E-02
  0.906250000      0.656250000      -2.99125295E-02 -0.278371930      -5.59535902E-03
  0.968750000      0.656250000      -1.44102722E-02 -0.311649054      -2.01669568E-03
   3.12500000E-02  0.718750000       2.16169213E-03   5.93123734E-02  -1.51097402E-03
   9.37500000E-02  0.718750000       7.19775353E-03  0.114947721      -1.51144702E-03
  0.156250000      0.718750000       1.38863586E-02  0.129762799      -1.78598193E-03
  0.218750000      0.718750000       2.24270243E-02  0.127212480      -2.71151494E-03
  0.281250000      0.718750000       3.23199108E-02  0.117670342      -4.38072486E-03
  0.343750000      0.718750000       4.24870625E-02  0.104154140      -6.64199051E-03
  0.406250000      0.718750000       5.16824462E-02   8.73453319E-02  -9.19424370E-03
  0.468750000      0.718750000       5.86108118E-02   6.75120428E-02  -1.16444388E-02
  0.531250000      0.718750000       6.19843379E-02   4.52344194E-02  -1.35742761E-02
  0.593750000      0.718750000       6.06802776E-02   2.15387978E-02  -1.46368816E-02
  0.656250000      0.718750000       5.38277924E-02  -3.30220489E-03  -1.46552399E-02
  0.718750000      0.718750000       4.14682962E-02  -3.17695364E-02  -1.39113432E-02
  0.781250000      0.718750000       2.44192258E-02  -7.34914541E-02  -1.22361518E-02
  0.843750000      0.718750000       2.15463294E-03 -0.155130833      -9.26890876E-03
  0.906250000      0.718750000      -1.52235441E-02 -0.274755508      -2.91539426E-03
  0.968750000      0.718750000      -9.96764097E-03 -0.336030245       2.60573463E-03
   3.12500000E-02  0.781250000      -4.75566078E-04   5.76229282E-02  -2.12119427E-03
   9.37500000E-02  0.781250000       2.91146780E-03  0.108206540      -1.63397787E-03
  0.156250000      0.781250000       1.31012984E-02  0.119618051      -1.27352576E-03
  0.218750000      0.781250000       2.72058100E-02  0.114708014      -1.64935412E-03
  0.281250000      0.781250000       4.29515466E-02  0.104538344      -3.00070643E-03
  0.343750000      0.781250000       5.82090430E-02   9.18710977E-02  -5.12777735E-03
  0.406250000      0.781250000       7.13917315E-02   7.72665888E-02  -7.65093695E-03
  0.468750000      0.781250000       8.11324492E-02   6.09421656E-02  -1.01170735E-02
  0.531250000      0.781250000       8.62230733E-02   4.33614254E-02  -1.20734638E-02
  0.593750000      0.781250000       8.57401341E-02   2.52176542E-02  -1.31544676E-02
  0.656250000      0.781250000       7.91149139E-02   6.51082257E-03  -1.31574217E-02
  0.718750000      0.781250000       6.67142719E-02  -1.68140009E-02  -1.22780744E-02
  0.781250000      0.781250000       4.97980788E-02  -5.44803925E-02  -9.99385584E-03
  0.843750000      0.781250000       2.95957662E-02 -0.131681874      -5.10277227E-03
  0.906250000      0.781250000       7.14434497E-03 -0.258388460       3.75892664E-03
  0.968750000      0.781250000      -2.25952361E-03 -0.348264277       1.35636088E-02
   3.12500000E-02  0.843750000      -6.14699582E-03   6.42407984E-02  -2.80760555E-03
   9.37500000E-02  0.843750000      -7.12765567E-03   9.91709083E-02  -1.43812620E-03
  0.156250000      0.843750000       8.35388061E-03  0.102968864      -1.55679969E-04
  0.218750000      0.843750000       3.03682387E-02   9.52269286E-02   6.46568224E-05
  0.281250000      0.843750000       5.33222258E-02   8.53141919E-02  -1.06850243E-03
  0.343750000      0.843750000       7.44997710E-02   7.46627003E-02  -3.20153101E-03
  0.406250000      0.843750000       9.24077779E-02   6.33944795E-02  -5.83512569E-03
  0.468750000      0.843750000      0.105953366       5.15434593E-02  -8.44623707E-03
  0.531250000      0.843750000      0.114301637       3.93385962E-02  -1.05465986E-02
  0.593750000      0.843750000      0.116992153       2.70486325E-02  -1.17468759E-02
  0.656250000      0.843750000      0.114109993       1.41984634E-02  -1.18103325E-02
  0.718750000      0.843750000      0.105515033      -3.50119243E-03  -1.06083751E-02
  0.781250000      0.843750000       9.23081934E-02  -3.76740918E-02  -7.30002625E-03
  0.843750000      0.843750000       7.36825168E-02 -0.109674692       1.32468552E-03
  0.906250000      0.843750000       4.39520851E-02 -0.228237525       1.78851578E-02
  0.968750000      0.843750000       1.27253681E-02 -0.337809741       3.66004482E-02
   3.12500000E-02  0.906250000      -1.14068929E-02   8.17881525E-02  -4.88854991E-03
   9.37500000E-02  0.906250000      -1.14845149E-02   8.26652721E-02  -1.01198757E-03
  0.156250000      0.906250000       1.72212869E-02   7.52661973E-02   1.61756913E-03
  0.218750000      0.906250000       5.17262295E-02   6.63903803E-02   2.35576788E-03
  0.281250000      0.906250000       8.44838619E-02   5.84253035E-02   1.23839616E-03
  0.343750000      0.906250000      0.113792390       5.10607064E-02  -1.07386813E-03
  0.406250000      0.906250000      0.138926208       4.39587645E-02  -3.94754391E-03
  0.468750000      0.906250000      0.159409478       3.69609706E-02  -6.80277729E-03
  0.531250000      0.906250000      0.174932286       3.00635807E-02  -9.12516844E-03
  0.593750000      0.906250000      0.185384989       2.31930725E-02  -1.04900310E-02
  0.656250000      0.906250000      0.190908089       1.54213868E-02  -1.05439182E-02
  0.718750000      0.906250000      0.192491800       2.28805910E-03  -8.85148998E-03
  0.781250000      0.906250000      0.189079106      -2.68535763E-02  -3.04974150E-03
  0.843750000      0.906250000      0.170604706      -8.34173858E-02   1.24877654E-02
  0.906250000      0.906250000      0.121175110     -0.175367847       4.25178260E-02
  0.968750000      0.906250000       4.33939919E-02 -0.281705797       8.07474777E-02
   3.12500000E-02  0.968750000       4.65927497E-02   4.65956219E-02  -1.19413948E-02
   9.37500000E-02  0.968750000      0.128845245       3.56650390E-02   9.87082254E-04
  0.156250000      0.968750000      0.193440646       2.89415531E-02   5.04598953E-03
  0.218750000      0.968750000      0.246999323       2.46281922E-02   5.53342653E-03
  0.281250000      0.968750000      0.293015301       2.13963427E-02   3.99728958E-03
  0.343750000      0.968750000      0.333097160       1.86903067E-02   1.29273452E-03
  0.406250000      0.968750000      0.368039370       1.62528250E-02  -1.92139670E-03
  0.468750000      0.968750000      0.398261726       1.39675094E-02  -5.06856153E-03
  0.531250000      0.968750000      0.424019098       1.17863193E-02  -7.63734523E-03
  0.593750000      0.968750000      0.445427358       9.61846393E-03  -9.16621648E-03
  0.656250000      0.968750000      0.461976588       6.92894636E-03  -9.03347135E-03
  0.718750000      0.968750000      0.470037758       1.13367941E-03  -5.27951773E-03
  0.781250000      0.968750000      0.459452510      -1.17132235E-02   5.70815662E-03
  0.843750000      0.968750000      0.413537502      -3.41914892E-02   2.92340498E-02
  0.906250000      0.968750000      0.308835924      -7.04955906E-02   7.26366118E-02
  0.968750000      0.968750000      0.119166084     -0.119160205      0.136576012    
