 VARIABLES="X","Y","U","V","P"
 ZONE F=POINT, I=         128 , J=         128
   3.90625000E-03   3.90625000E-03  -1.32422929E-06   1.32115156E-06   3.13423425E-02
   1.17187500E-02   3.90625000E-03   1.60705222E-05  -1.87228216E-05   3.13532799E-02
   1.95312500E-02   3.90625000E-03   7.33617635E-05  -3.85752319E-05   3.13655622E-02
   2.73437500E-02   3.90625000E-03   1.64859681E-04  -5.29287427E-05   3.13724428E-02
   3.51562500E-02   3.90625000E-03   2.79251428E-04  -6.14675519E-05   3.13702300E-02
   4.29687500E-02   3.90625000E-03   4.05807863E-04  -6.50916263E-05   3.13571766E-02
   5.07812500E-02   3.90625000E-03   5.35750063E-04  -6.48525893E-05   3.13327536E-02
   5.85937500E-02   3.90625000E-03   6.62297069E-04  -6.16956604E-05   3.12971398E-02
   6.64062500E-02   3.90625000E-03   7.80404429E-04  -5.64131697E-05   3.12509052E-02
   7.42187500E-02   3.90625000E-03   8.86469381E-04  -4.96538487E-05   3.11948489E-02
   8.20312500E-02   3.90625000E-03   9.78063908E-04  -4.19439748E-05   3.11298389E-02
   8.98437500E-02   3.90625000E-03   1.05369720E-03  -3.36938283E-05   3.10567580E-02
   9.76562500E-02   3.90625000E-03   1.11260405E-03  -2.52191494E-05   3.09764091E-02
  0.105468750       3.90625000E-03   1.15455838E-03  -1.67429716E-05   3.08894999E-02
  0.113281250       3.90625000E-03   1.17970840E-03  -8.41629117E-06   3.07966117E-02
  0.121093750       3.90625000E-03   1.18844584E-03  -3.32139649E-07   3.06981988E-02
  0.128906250       3.90625000E-03   1.18130259E-03   7.46401292E-06   3.05945836E-02
  0.136718750       3.90625000E-03   1.15885050E-03   1.49772404E-05   3.04859690E-02
  0.144531250       3.90625000E-03   1.12162717E-03   2.22356030E-05   3.03724334E-02
  0.152343750       3.90625000E-03   1.07008591E-03   2.92959667E-05   3.02539691E-02
  0.160156250       3.90625000E-03   1.00454572E-03   3.62361716E-05   3.01304813E-02
  0.167968750       3.90625000E-03   9.25152388E-04   4.31502012E-05   3.00018229E-02
  0.175781250       3.90625000E-03   8.31873738E-04   5.01231625E-05   2.98678204E-02
  0.183593750       3.90625000E-03   7.24493759E-04   5.72529862E-05   2.97282804E-02
  0.191406250       3.90625000E-03   6.02632063E-04   6.46055560E-05   2.95830332E-02
  0.199218750       3.90625000E-03   4.65777761E-04   7.22458935E-05   2.94319354E-02
  0.207031250       3.90625000E-03   3.13317374E-04   8.02114519E-05   2.92748846E-02
  0.214843750       3.90625000E-03   1.44555655E-04   8.85468835E-05   2.91118398E-02
  0.222656250       3.90625000E-03  -4.12529589E-05   9.72572379E-05   2.89428458E-02
  0.230468750       3.90625000E-03  -2.44871713E-04   1.06354753E-04   2.87679750E-02
  0.238281250       3.90625000E-03  -4.67085396E-04   1.15849427E-04   2.85874214E-02
  0.246093750       3.90625000E-03  -7.08675419E-04   1.25728635E-04   2.84014270E-02
  0.253906250       3.90625000E-03  -9.70374444E-04   1.35956259E-04   2.82103419E-02
  0.261718750       3.90625000E-03  -1.25284120E-03   1.46494771E-04   2.80146040E-02
  0.269531250       3.90625000E-03  -1.55664713E-03   1.57294155E-04   2.78147478E-02
  0.277343750       3.90625000E-03  -1.88225694E-03   1.68298880E-04   2.76114158E-02
  0.285156250       3.90625000E-03  -2.23001838E-03   1.79448747E-04   2.74053495E-02
  0.292968750       3.90625000E-03  -2.60015670E-03   1.90679013E-04   2.71974057E-02
  0.300781250       3.90625000E-03  -2.99275457E-03   2.01911680E-04   2.69885585E-02
  0.308593750       3.90625000E-03  -3.40773491E-03   2.13063511E-04   2.67799161E-02
  0.316406250       3.90625000E-03  -3.84486048E-03   2.24058313E-04   2.65726559E-02
  0.324218750       3.90625000E-03  -4.30373009E-03   2.34808787E-04   2.63681076E-02
  0.332031250       3.90625000E-03  -4.78375144E-03   2.45211326E-04   2.61676721E-02
  0.339843750       3.90625000E-03  -5.28414315E-03   2.55179591E-04   2.59728748E-02
  0.347656250       3.90625000E-03  -5.80392499E-03   2.64600880E-04   2.57853363E-02
  0.355468750       3.90625000E-03  -6.34190999E-03   2.73380807E-04   2.56067701E-02
  0.363281250       3.90625000E-03  -6.89671095E-03   2.81416578E-04   2.54389606E-02
  0.371093750       3.90625000E-03  -7.46670878E-03   2.88578129E-04   2.52837762E-02
  0.378906250       3.90625000E-03  -8.05006828E-03   2.94778059E-04   2.51431428E-02
  0.386718750       3.90625000E-03  -8.64476152E-03   2.99911684E-04   2.50190608E-02
  0.394531250       3.90625000E-03  -9.24853329E-03   3.03857320E-04   2.49134488E-02
  0.402343750       3.90625000E-03  -9.85893607E-03   3.06539761E-04   2.48283371E-02
  0.410156250       3.90625000E-03  -1.04733258E-02   3.07839597E-04   2.47656889E-02
  0.417968750       3.90625000E-03  -1.10888258E-02   3.07650451E-04   2.47273929E-02
  0.425781250       3.90625000E-03  -1.17023820E-02   3.05898895E-04   2.47153882E-02
  0.433593750       3.90625000E-03  -1.23107638E-02   3.02478002E-04   2.47314610E-02
  0.441406250       3.90625000E-03  -1.29105635E-02   2.97316583E-04   2.47772783E-02
  0.449218750       3.90625000E-03  -1.34982113E-02   2.90327182E-04   2.48544049E-02
  0.457031250       3.90625000E-03  -1.40699940E-02   2.81450542E-04   2.49642115E-02
  0.464843750       3.90625000E-03  -1.46220755E-02   2.70624761E-04   2.51078978E-02
  0.472656250       3.90625000E-03  -1.51505191E-02   2.57815089E-04   2.52863728E-02
  0.480468750       3.90625000E-03  -1.56513061E-02   2.42969923E-04   2.55003981E-02
  0.488281250       3.90625000E-03  -1.61203220E-02   2.26043572E-04   2.57504229E-02
  0.496093750       3.90625000E-03  -1.65533908E-02   2.07021905E-04   2.60365773E-02
  0.503906250       3.90625000E-03  -1.69462897E-02   1.85879733E-04   2.63585653E-02
  0.511718750       3.90625000E-03  -1.72947794E-02   1.62610289E-04   2.67158188E-02
  0.519531250       3.90625000E-03  -1.75946131E-02   1.37224823E-04   2.71072630E-02
  0.527343750       3.90625000E-03  -1.78416036E-02   1.09761990E-04   2.75314189E-02
  0.535156250       3.90625000E-03  -1.80316605E-02   8.02881259E-05   2.79861744E-02
  0.542968750       3.90625000E-03  -1.81609541E-02   4.89918530E-05   2.84689795E-02
  0.550781250       3.90625000E-03  -1.82262715E-02   1.63160657E-05   2.89764535E-02
  0.558593750       3.90625000E-03  -1.82261541E-02  -1.64451558E-05   2.95044146E-02
  0.566406250       3.90625000E-03  -1.81589313E-02  -5.07972254E-05   3.00481282E-02
  0.574218750       3.90625000E-03  -1.80213768E-02  -8.67774434E-05   3.06040272E-02
  0.582031250       3.90625000E-03  -1.78105868E-02  -1.24031518E-04   3.11681125E-02
  0.589843750       3.90625000E-03  -1.75244454E-02  -1.62123208E-04   3.17357816E-02
  0.597656250       3.90625000E-03  -1.71616562E-02  -2.00676484E-04   3.23022567E-02
  0.605468750       3.90625000E-03  -1.67217068E-02  -2.39277579E-04   3.28622311E-02
  0.613281250       3.90625000E-03  -1.62049178E-02  -2.77515443E-04   3.34104635E-02
  0.621093750       3.90625000E-03  -1.56124737E-02  -3.14932462E-04   3.39413695E-02
  0.628906250       3.90625000E-03  -1.49464272E-02  -3.51121242E-04   3.44494507E-02
  0.636718750       3.90625000E-03  -1.42097007E-02  -3.85614519E-04   3.49291749E-02
  0.644531250       3.90625000E-03  -1.34061817E-02  -4.17913194E-04   3.53752300E-02
  0.652343750       3.90625000E-03  -1.25407130E-02  -4.47561528E-04   3.57824974E-02
  0.660156250       3.90625000E-03  -1.16190892E-02  -4.74071945E-04   3.61463018E-02
  0.667968750       3.90625000E-03  -1.06480364E-02  -4.96993191E-04   3.64623182E-02
  0.675781250       3.90625000E-03  -9.63519048E-03  -5.15865104E-04   3.67268845E-02
  0.683593750       3.90625000E-03  -8.58904980E-03  -5.30287798E-04   3.69369537E-02
  0.691406250       3.90625000E-03  -7.51888379E-03  -5.39890549E-04   3.70902382E-02
  0.699218750       3.90625000E-03  -6.43462036E-03  -5.44384995E-04   3.71852778E-02
  0.707031250       3.90625000E-03  -5.34671731E-03  -5.43529459E-04   3.72215398E-02
  0.714843750       3.90625000E-03  -4.26601665E-03  -5.37181681E-04   3.71993743E-02
  0.722656250       3.90625000E-03  -3.20356386E-03  -5.25280833E-04   3.71201150E-02
  0.730468750       3.90625000E-03  -2.17044959E-03  -5.07842225E-04   3.69860046E-02
  0.738281250       3.90625000E-03  -1.17771886E-03  -4.84896998E-04   3.68002281E-02
  0.746093750       3.90625000E-03  -2.36461565E-04  -4.56369191E-04   3.65668349E-02
  0.753906250       3.90625000E-03   6.41735562E-04  -4.21838311E-04   3.62914018E-02
  0.761718750       3.90625000E-03   1.44677400E-03  -3.83211154E-04   3.59805599E-02
  0.769531250       3.90625000E-03   2.17188825E-03  -3.41913750E-04   3.56404781E-02
  0.777343750       3.90625000E-03   2.81224446E-03  -2.98452826E-04   3.52772959E-02
  0.785156250       3.90625000E-03   3.36428545E-03  -2.53597333E-04   3.48973535E-02
  0.792968750       3.90625000E-03   3.82602774E-03  -2.08152269E-04   3.45069803E-02
  0.800781250       3.90625000E-03   4.19713743E-03  -1.62963624E-04   3.41123790E-02
  0.808593750       3.90625000E-03   4.47896589E-03  -1.18869473E-04   3.37194465E-02
  0.816406250       3.90625000E-03   4.67452174E-03  -7.66904413E-05   3.33336070E-02
  0.824218750       3.90625000E-03   4.78837267E-03  -3.71639762E-05   3.29596512E-02
  0.832031250       3.90625000E-03   4.82644420E-03  -9.11685902E-07   3.26016396E-02
  0.839843750       3.90625000E-03   4.79551079E-03   3.18398743E-05   3.22629511E-02
  0.847656250       3.90625000E-03   4.70275898E-03   6.09069757E-05   3.19463611E-02
  0.855468750       3.90625000E-03   4.55568125E-03   8.61663284E-05   3.16536725E-02
  0.863281250       3.90625000E-03   4.36181761E-03   1.07694264E-04   3.13859917E-02
  0.871093750       3.90625000E-03   4.12847381E-03   1.25647566E-04   3.11438441E-02
  0.878906250       3.90625000E-03   3.86258215E-03   1.40242846E-04   3.09272725E-02
  0.886718750       3.90625000E-03   3.57061136E-03   1.51725457E-04   3.07359435E-02
  0.894531250       3.90625000E-03   3.25853936E-03   1.60343116E-04   3.05692330E-02
  0.902343750       3.90625000E-03   2.93185608E-03   1.66335944E-04   3.04263197E-02
  0.910156250       3.90625000E-03   2.59562465E-03   1.69891238E-04   3.03063188E-02
  0.917968750       3.90625000E-03   2.25460506E-03   1.71124237E-04   3.02082635E-02
  0.925781250       3.90625000E-03   1.91345264E-03   1.70023966E-04   3.01312357E-02
  0.933593750       3.90625000E-03   1.57701049E-03   1.66413767E-04   3.00743598E-02
  0.941406250       3.90625000E-03   1.25069357E-03   1.59898569E-04   3.00367735E-02
  0.949218750       3.90625000E-03   9.40973288E-04   1.49817351E-04   3.00175659E-02
  0.957031250       3.90625000E-03   6.55919663E-04   1.35232360E-04   3.00155804E-02
  0.964843750       3.90625000E-03   4.05707164E-04   1.14975730E-04   3.00290659E-02
  0.972656250       3.90625000E-03   2.02809533E-04   8.79169238E-05   3.00551318E-02
  0.980468750       3.90625000E-03   6.10692368E-05   5.38183886E-05   3.00888754E-02
  0.988281250       3.90625000E-03  -8.62130764E-06   1.58674829E-05   3.01222298E-02
  0.996093750       3.90625000E-03  -1.22455103E-05  -1.22468582E-05   3.01430076E-02
   3.90625000E-03   1.17187500E-02   1.86816269E-05  -1.60429390E-05   3.13314125E-02
   1.17187500E-02   1.17187500E-02   9.88800894E-05  -9.89666150E-05   3.13423648E-02
   1.95312500E-02   1.17187500E-02   2.60458677E-04  -1.77216600E-04   3.13511975E-02
   2.73437500E-02   1.17187500E-02   4.89503494E-04  -2.34844425E-04   3.13544124E-02
   3.51562500E-02   1.17187500E-02   7.65443663E-04  -2.69894721E-04   3.13495286E-02
   4.29687500E-02   1.17187500E-02   1.06710591E-03  -2.84889888E-04   3.13351415E-02
   5.07812500E-02   1.17187500E-02   1.37555262E-03  -2.83447967E-04   3.13106589E-02
   5.85937500E-02   1.17187500E-02   1.67505234E-03  -2.69151089E-04   3.12760770E-02
   6.64062500E-02   1.17187500E-02   1.95317902E-03  -2.45196628E-04   3.12317610E-02
   7.42187500E-02   1.17187500E-02   2.20055133E-03  -2.14313244E-04   3.11782919E-02
   8.20312500E-02   1.17187500E-02   2.41042371E-03  -1.78759787E-04   3.11163720E-02
   8.98437500E-02   1.17187500E-02   2.57825362E-03  -1.40352771E-04   3.10467109E-02
   9.76562500E-02   1.17187500E-02   2.70127226E-03  -1.00500154E-04   3.09700090E-02
  0.105468750       1.17187500E-02   2.77806912E-03  -6.02309410E-05   3.08868662E-02
  0.113281250       1.17187500E-02   2.80822790E-03  -2.02575284E-05   3.07977945E-02
  0.121093750       1.17187500E-02   2.79201195E-03   1.89638358E-05   3.07031982E-02
  0.128906250       1.17187500E-02   2.73008645E-03   5.72110366E-05   3.06033883E-02
  0.136718750       1.17187500E-02   2.62331893E-03   9.44242711E-05   3.04985382E-02
  0.144531250       1.17187500E-02   2.47261161E-03   1.30694651E-04   3.03887315E-02
  0.152343750       1.17187500E-02   2.27871072E-03   1.66257494E-04   3.02739684E-02
  0.160156250       1.17187500E-02   2.04208889E-03   2.01417672E-04   3.01541723E-02
  0.167968750       1.17187500E-02   1.76285987E-03   2.36574357E-04   3.00292317E-02
  0.175781250       1.17187500E-02   1.44075789E-03   2.72066623E-04   2.98989844E-02
  0.183593750       1.17187500E-02   1.07512670E-03   3.08311166E-04   2.97632627E-02
  0.191406250       1.17187500E-02   6.64973399E-04   3.45554465E-04   2.96219252E-02
  0.199218750       1.17187500E-02   2.09002639E-04   3.84115090E-04   2.94748433E-02
  0.207031250       1.17187500E-02  -2.94232188E-04   4.24030644E-04   2.93219090E-02
  0.214843750       1.17187500E-02  -8.46239156E-04   4.65488498E-04   2.91630849E-02
  0.222656250       1.17187500E-02  -1.44873734E-03   5.08611323E-04   2.89984476E-02
  0.230468750       1.17187500E-02  -2.10355758E-03   5.53423539E-04   2.88280714E-02
  0.238281250       1.17187500E-02  -2.81247264E-03   5.99887746E-04   2.86521222E-02
  0.246093750       1.17187500E-02  -3.57712223E-03   6.47902838E-04   2.84708291E-02
  0.253906250       1.17187500E-02  -4.39896481E-03   6.97290816E-04   2.82845385E-02
  0.261718750       1.17187500E-02  -5.27921179E-03   7.47836428E-04   2.80936435E-02
  0.269531250       1.17187500E-02  -6.21877611E-03   7.99282221E-04   2.78986618E-02
  0.277343750       1.17187500E-02  -7.21823610E-03   8.51343153E-04   2.77001895E-02
  0.285156250       1.17187500E-02  -8.27780180E-03   9.03701410E-04   2.74989549E-02
  0.292968750       1.17187500E-02  -9.39728227E-03   9.56022646E-04   2.72957608E-02
  0.300781250       1.17187500E-02  -1.05760545E-02   1.00792293E-03   2.70915572E-02
  0.308593750       1.17187500E-02  -1.18130259E-02   1.05899142E-03   2.68874131E-02
  0.316406250       1.17187500E-02  -1.31066125E-02   1.10883417E-03   2.66844556E-02
  0.324218750       1.17187500E-02  -1.44547578E-02   1.15704373E-03   2.64839642E-02
  0.332031250       1.17187500E-02  -1.58548858E-02   1.20312255E-03   2.62873247E-02
  0.339843750       1.17187500E-02  -1.73038766E-02   1.24665105E-03   2.60959808E-02
  0.347656250       1.17187500E-02  -1.87980644E-02   1.28709688E-03   2.59115435E-02
  0.355468750       1.17187500E-02  -2.03332417E-02   1.32403988E-03   2.57356651E-02
  0.363281250       1.17187500E-02  -2.19046660E-02   1.35697494E-03   2.55700573E-02
  0.371093750       1.17187500E-02  -2.35070549E-02   1.38540159E-03   2.54166126E-02
  0.378906250       1.17187500E-02  -2.51346007E-02   1.40885054E-03   2.52771545E-02
  0.386718750       1.17187500E-02  -2.67809480E-02   1.42687175E-03   2.51536630E-02
  0.394531250       1.17187500E-02  -2.84392722E-02   1.43899117E-03   2.50480585E-02
  0.402343750       1.17187500E-02  -3.01022995E-02   1.44482683E-03   2.49622986E-02
  0.410156250       1.17187500E-02  -3.17623168E-02   1.44393672E-03   2.48983391E-02
  0.417968750       1.17187500E-02  -3.34111974E-02   1.43590732E-03   2.48580426E-02
  0.425781250       1.17187500E-02  -3.50403897E-02   1.42037589E-03   2.48432942E-02
  0.433593750       1.17187500E-02  -3.66410017E-02   1.39698107E-03   2.48558950E-02
  0.441406250       1.17187500E-02  -3.82038578E-02   1.36545755E-03   2.48974748E-02
  0.449218750       1.17187500E-02  -3.97195444E-02   1.32550881E-03   2.49696244E-02
  0.457031250       1.17187500E-02  -4.11784202E-02   1.27691298E-03   2.50736922E-02
  0.464843750       1.17187500E-02  -4.25706655E-02   1.21948053E-03   2.52108425E-02
  0.472656250       1.17187500E-02  -4.38863598E-02   1.15308864E-03   2.53820270E-02
  0.480468750       1.17187500E-02  -4.51155156E-02   1.07762765E-03   2.55879406E-02
  0.488281250       1.17187500E-02  -4.62481640E-02   9.93042719E-04   2.58291792E-02
  0.496093750       1.17187500E-02  -4.72744070E-02   8.99331237E-04   2.61058137E-02
  0.503906250       1.17187500E-02  -4.81844470E-02   7.96510722E-04   2.64175702E-02
  0.511718750       1.17187500E-02  -4.89686541E-02   6.84675062E-04   2.67639160E-02
  0.519531250       1.17187500E-02  -4.96177226E-02   5.64059708E-04   2.71438546E-02
  0.527343750       1.17187500E-02  -5.01228385E-02   4.35021910E-04   2.75559332E-02
  0.535156250       1.17187500E-02  -5.04759178E-02   2.98153260E-04   2.79981866E-02
  0.542968750       1.17187500E-02  -5.06700352E-02   1.54510519E-04   2.84683071E-02
  0.550781250       1.17187500E-02  -5.07002175E-02   6.27448935E-06   2.89631952E-02
  0.558593750       1.17187500E-02  -5.05612716E-02  -1.45483325E-04   2.94769835E-02
  0.566406250       1.17187500E-02  -5.02464063E-02  -3.03888606E-04   3.00063342E-02
  0.574218750       1.17187500E-02  -4.97493632E-02  -4.68332495E-04   3.05477045E-02
  0.582031250       1.17187500E-02  -4.90654111E-02  -6.37258403E-04   3.10969725E-02
  0.589843750       1.17187500E-02  -4.81915548E-02  -8.08918267E-04   3.16497721E-02
  0.597656250       1.17187500E-02  -4.71265577E-02  -9.81692108E-04   3.22014429E-02
  0.605468750       1.17187500E-02  -4.58709262E-02  -1.15385756E-03   3.27467918E-02
  0.613281250       1.17187500E-02  -4.44270000E-02  -1.32366293E-03   3.32807042E-02
  0.621093750       1.17187500E-02  -4.27989811E-02  -1.48925616E-03   3.37976776E-02
  0.628906250       1.17187500E-02  -4.09930386E-02  -1.64880860E-03   3.42924744E-02
  0.636718750       1.17187500E-02  -3.90173569E-02  -1.80035736E-03   3.47596295E-02
  0.644531250       1.17187500E-02  -3.68820950E-02  -1.94197323E-03   3.51939872E-02
  0.652343750       1.17187500E-02  -3.45994383E-02  -2.07163696E-03   3.55906077E-02
  0.660156250       1.17187500E-02  -3.21836583E-02  -2.18742318E-03   3.59449536E-02
  0.667968750       1.17187500E-02  -2.96509564E-02  -2.28742557E-03   3.62528414E-02
  0.675781250       1.17187500E-02  -2.70194896E-02  -2.36977264E-03   3.65107171E-02
  0.683593750       1.17187500E-02  -2.43092217E-02  -2.43281503E-03   3.67156900E-02
  0.691406250       1.17187500E-02  -2.15417780E-02  -2.47499929E-03   3.68655771E-02
  0.699218750       1.17187500E-02  -1.87402368E-02  -2.49511120E-03   3.69590074E-02
  0.707031250       1.17187500E-02  -1.59288384E-02  -2.49212887E-03   3.69955227E-02
  0.714843750       1.17187500E-02  -1.31327529E-02  -2.46539270E-03   3.69755514E-02
  0.722656250       1.17187500E-02  -1.03777200E-02  -2.41457624E-03   3.69004458E-02
  0.730468750       1.17187500E-02  -7.68969906E-03  -2.33970070E-03   3.67724709E-02
  0.738281250       1.17187500E-02  -5.09450305E-03  -2.24098284E-03   3.65948081E-02
  0.746093750       1.17187500E-02  -2.61746673E-03  -2.11859634E-03   3.63714471E-02
  0.753906250       1.17187500E-02  -2.83109170E-04  -1.97218778E-03   3.61071080E-02
  0.761718750       1.17187500E-02   1.88196986E-03  -1.80300279E-03   3.58101800E-02
  0.769531250       1.17187500E-02   3.85507569E-03  -1.62036554E-03   3.54855880E-02
  0.777343750       1.17187500E-02   5.62210009E-03  -1.42740458E-03   3.51387709E-02
  0.785156250       1.17187500E-02   7.17285229E-03  -1.22745964E-03   3.47758457E-02
  0.792968750       1.17187500E-02   8.50073248E-03  -1.02392992E-03   3.44028845E-02
  0.800781250       1.17187500E-02   9.60279908E-03  -8.20375455E-04   3.40258442E-02
  0.808593750       1.17187500E-02   1.04799485E-02  -6.20445993E-04   3.36503088E-02
  0.816406250       1.17187500E-02   1.11369593E-02  -4.27688239E-04   3.32814530E-02
  0.824218750       1.17187500E-02   1.15822759E-02  -2.45341158E-04   3.29238363E-02
  0.832031250       1.17187500E-02   1.18276514E-02  -7.61906485E-05   3.25813368E-02
  0.839843750       1.17187500E-02   1.18878651E-02   7.78276008E-05   3.22569422E-02
  0.847656250       1.17187500E-02   1.17795067E-02   2.16020475E-04   3.19534279E-02
  0.855468750       1.17187500E-02   1.15199331E-02   3.37696576E-04   3.16725671E-02
  0.863281250       1.17187500E-02   1.11270472E-02   4.42906254E-04   3.14153917E-02
  0.871093750       1.17187500E-02   1.06187314E-02   5.32089500E-04   3.11824009E-02
  0.878906250       1.17187500E-02   1.00124776E-02   6.05942216E-04   3.09736468E-02
  0.886718750       1.17187500E-02   9.32513643E-03   6.65332656E-04   3.07888165E-02
  0.894531250       1.17187500E-02   8.57273489E-03   7.11201166E-04   3.06273401E-02
  0.902343750       1.17187500E-02   7.77047034E-03   7.44417484E-04   3.04884091E-02
  0.910156250       1.17187500E-02   6.93280809E-03   7.65693374E-04   3.03711835E-02
  0.917968750       1.17187500E-02   6.07371610E-03   7.75423250E-04   3.02746929E-02
  0.925781250       1.17187500E-02   5.20708598E-03   7.73497042E-04   3.01979892E-02
  0.933593750       1.17187500E-02   4.34730668E-03   7.59151939E-04   3.01401317E-02
  0.941406250       1.17187500E-02   3.50998552E-03   7.30787404E-04   3.01001295E-02
  0.949218750       1.17187500E-02   2.71274894E-03   6.85874023E-04   3.00769415E-02
  0.957031250       1.17187500E-02   1.97597919E-03   6.20988838E-04   3.00692581E-02
  0.964843750       1.17187500E-02   1.32317981E-03   5.32220176E-04   3.00752949E-02
  0.972656250       1.17187500E-02   7.80326198E-04   4.16412076E-04   3.00924387E-02
  0.980468750       1.17187500E-02   3.73022282E-04   2.74356455E-04   3.01168151E-02
  0.988281250       1.17187500E-02   1.19438242E-04   1.18593882E-04   3.01429350E-02
  0.996093750       1.17187500E-02   1.62883534E-05  -8.20743480E-06   3.01637873E-02
   3.90625000E-03   1.95312500E-02   3.85867061E-05  -7.33180423E-05   3.13191041E-02
   1.17187500E-02   1.95312500E-02   1.77423994E-04  -2.60742701E-04   3.13335508E-02
   1.95312500E-02   1.95312500E-02   4.26852435E-04  -4.26464656E-04   3.13423984E-02
   2.73437500E-02   1.95312500E-02   7.60457944E-04  -5.48261800E-04   3.13443542E-02
   3.51562500E-02   1.95312500E-02   1.15057628E-03  -6.22548629E-04   3.13381553E-02
   4.29687500E-02   1.95312500E-02   1.57008716E-03  -6.53418188E-04   3.13229784E-02
   5.07812500E-02   1.95312500E-02   1.99432462E-03  -6.47610170E-04   3.12984176E-02
   5.85937500E-02   1.95312500E-02   2.40214495E-03  -6.12315955E-04   3.12645063E-02
   6.64062500E-02   1.95312500E-02   2.77626934E-03  -5.54290542E-04   3.12215276E-02
   7.42187500E-02   1.95312500E-02   3.10316915E-03  -4.79499926E-04   3.11699789E-02
   8.20312500E-02   1.95312500E-02   3.37271206E-03  -3.92999325E-04   3.11104506E-02
   8.98437500E-02   1.95312500E-02   3.57769243E-03  -2.98937433E-04   3.10435593E-02
   9.76562500E-02   1.95312500E-02   3.71331489E-03  -2.00573399E-04   3.09699140E-02
  0.105468750       1.95312500E-02   3.77668859E-03  -1.00347897E-04   3.08900438E-02
  0.113281250       1.95312500E-02   3.76633951E-03   2.72857505E-08   3.08043994E-02
  0.121093750       1.95312500E-02   3.68179800E-03   9.94114453E-05   3.07133570E-02
  0.128906250       1.95312500E-02   3.52331647E-03   1.97143352E-04   3.06171626E-02
  0.136718750       1.95312500E-02   3.29156173E-03   2.92986515E-04   3.05159800E-02
  0.144531250       1.95312500E-02   2.98728282E-03   3.87092005E-04   3.04098912E-02
  0.152343750       1.95312500E-02   2.61105504E-03   4.79965325E-04   3.02988812E-02
  0.160156250       1.95312500E-02   2.16315477E-03   5.72210469E-04   3.01828869E-02
  0.167968750       1.95312500E-02   1.64339412E-03   6.64752442E-04   3.00617777E-02
  0.175781250       1.95312500E-02   1.05114141E-03   7.58227077E-04   2.99354270E-02
  0.183593750       1.95312500E-02   3.85252439E-04   8.53657955E-04   2.98036505E-02
  0.191406250       1.95312500E-02  -3.55684111E-04   9.51287337E-04   2.96663065E-02
  0.199218750       1.95312500E-02  -1.17309345E-03   1.05175318E-03   2.95231901E-02
  0.207031250       1.95312500E-02  -2.06889771E-03   1.15542230E-03   2.93743424E-02
  0.214843750       1.95312500E-02  -3.04543087E-03   1.26262615E-03   2.92197093E-02
  0.222656250       1.95312500E-02  -4.10504360E-03   1.37357134E-03   2.90592946E-02
  0.230468750       1.95312500E-02  -5.25000272E-03   1.48822390E-03   2.88931765E-02
  0.238281250       1.95312500E-02  -6.48240745E-03   1.60638196E-03   2.87215132E-02
  0.246093750       1.95312500E-02  -7.80408457E-03   1.72770442E-03   2.85445079E-02
  0.253906250       1.95312500E-02  -9.21648741E-03   1.85169629E-03   2.83624772E-02
  0.261718750       1.95312500E-02  -1.07206050E-02   1.97775196E-03   2.81758010E-02
  0.269531250       1.95312500E-02  -1.23169133E-02   2.10519368E-03   2.79849526E-02
  0.277343750       1.95312500E-02  -1.40053015E-02   2.23323936E-03   2.77904887E-02
  0.285156250       1.95312500E-02  -1.57850012E-02   2.36103986E-03   2.75930986E-02
  0.292968750       1.95312500E-02  -1.76545642E-02   2.48770812E-03   2.73935609E-02
  0.300781250       1.95312500E-02  -1.96118262E-02   2.61225551E-03   2.71927938E-02
  0.308593750       1.95312500E-02  -2.16538571E-02   2.73364596E-03   2.69918106E-02
  0.316406250       1.95312500E-02  -2.37769634E-02   2.85086315E-03   2.67917290E-02
  0.324218750       1.95312500E-02  -2.59766541E-02   2.96284514E-03   2.65937075E-02
  0.332031250       1.95312500E-02  -2.82476209E-02   3.06841335E-03   2.63991989E-02
  0.339843750       1.95312500E-02  -3.05837505E-02   3.16647999E-03   2.62095146E-02
  0.347656250       1.95312500E-02  -3.29781547E-02   3.25585669E-03   2.60263141E-02
  0.355468750       1.95312500E-02  -3.54231447E-02   3.33544007E-03   2.58511901E-02
  0.363281250       1.95312500E-02  -3.79102379E-02   3.40408389E-03   2.56857723E-02
  0.371093750       1.95312500E-02  -4.04302403E-02   3.46067920E-03   2.55319346E-02
  0.378906250       1.95312500E-02  -4.29732278E-02   3.50409490E-03   2.53915414E-02
  0.386718750       1.95312500E-02  -4.55285832E-02   3.53332004E-03   2.52665225E-02
  0.394531250       1.95312500E-02  -4.80851158E-02   3.54740303E-03   2.51587406E-02
  0.402343750       1.95312500E-02  -5.06310947E-02   3.54541186E-03   2.50702612E-02
  0.410156250       1.95312500E-02  -5.31542040E-02   3.52645549E-03   2.50028465E-02
  0.417968750       1.95312500E-02  -5.56417219E-02   3.48976161E-03   2.49585547E-02
  0.425781250       1.95312500E-02  -5.80805428E-02   3.43451090E-03   2.49391459E-02
  0.433593750       1.95312500E-02  -6.04572296E-02   3.36012221E-03   2.49464642E-02
  0.441406250       1.95312500E-02  -6.27581030E-02   3.26602813E-03   2.49821395E-02
  0.449218750       1.95312500E-02  -6.49693310E-02   3.15183424E-03   2.50478759E-02
  0.457031250       1.95312500E-02  -6.70769736E-02   3.01708840E-03   2.51448844E-02
  0.464843750       1.95312500E-02  -6.90670386E-02   2.86161015E-03   2.52744090E-02
  0.472656250       1.95312500E-02  -7.09256083E-02   2.68521509E-03   2.54375692E-02
  0.480468750       1.95312500E-02  -7.26388916E-02   2.48790765E-03   2.56348848E-02
  0.488281250       1.95312500E-02  -7.41933212E-02   2.26982078E-03   2.58670729E-02
  0.496093750       1.95312500E-02  -7.55756497E-02   2.03112490E-03   2.61342824E-02
  0.503906250       1.95312500E-02  -7.67730623E-02   1.77216565E-03   2.64362730E-02
  0.511718750       1.95312500E-02  -7.77733624E-02   1.49352406E-03   2.67726220E-02
  0.519531250       1.95312500E-02  -7.85650536E-02   1.19595742E-03   2.71423087E-02
  0.527343750       1.95312500E-02  -7.91374892E-02   8.80660664E-04   2.75440589E-02
  0.535156250       1.95312500E-02  -7.94811919E-02   5.49289805E-04   2.79759690E-02
  0.542968750       1.95312500E-02  -7.95881227E-02   2.04402430E-04   2.84361746E-02
  0.550781250       1.95312500E-02  -7.94525146E-02  -1.49064654E-04   2.89204940E-02
  0.558593750       1.95312500E-02  -7.90657401E-02  -5.15863881E-04   2.94221789E-02
  0.566406250       1.95312500E-02  -7.84180313E-02  -8.96117417E-04   2.99399700E-02
  0.574218750       1.95312500E-02  -7.75038451E-02  -1.28738373E-03   3.04701403E-02
  0.582031250       1.95312500E-02  -7.63196945E-02  -1.68634835E-03   3.10083516E-02
  0.589843750       1.95312500E-02  -7.48640001E-02  -2.08940194E-03   3.15502658E-02
  0.597656250       1.95312500E-02  -7.31373355E-02  -2.49289791E-03   3.20913643E-02
  0.605468750       1.95312500E-02  -7.11425394E-02  -2.89310119E-03   3.26264426E-02
  0.613281250       1.95312500E-02  -6.88847303E-02  -3.28617450E-03   3.31505947E-02
  0.621093750       1.95312500E-02  -6.63713887E-02  -3.66811850E-03   3.36582810E-02
  0.628906250       1.95312500E-02  -6.36124387E-02  -4.03486518E-03   3.41443792E-02
  0.636718750       1.95312500E-02  -6.06201664E-02  -4.38227784E-03   3.46033759E-02
  0.644531250       1.95312500E-02  -5.74093349E-02  -4.70616855E-03   3.50303352E-02
  0.652343750       1.95312500E-02  -5.39972633E-02  -5.00218570E-03   3.54203545E-02
  0.660156250       1.95312500E-02  -5.04037328E-02  -5.26621239E-03   3.57689597E-02
  0.667968750       1.95312500E-02  -4.66509014E-02  -5.49420156E-03   3.60720083E-02
  0.675781250       1.95312500E-02  -4.27632630E-02  -5.68212988E-03   3.63260098E-02
  0.683593750       1.95312500E-02  -3.87676060E-02  -5.82640897E-03   3.65281850E-02
  0.691406250       1.95312500E-02  -3.46927568E-02  -5.92372660E-03   3.66762802E-02
  0.699218750       1.95312500E-02  -3.05693857E-02  -5.97132463E-03   3.67691293E-02
  0.707031250       1.95312500E-02  -2.64297500E-02  -5.96697442E-03   3.68061811E-02