 VARIABLES="X","Y","U","V","P"
 ZONE F=POINT, I=          32 , J=          32
   1.56250000E-02   1.56250000E-02   4.75622859E-04  -4.76392452E-04   3.81853059E-02
   4.68750000E-02   1.56250000E-02   1.67325267E-03  -7.23042060E-04   3.81568037E-02
   7.81250000E-02   1.56250000E-02   2.88934354E-03  -4.95104934E-04   3.80100310E-02
  0.109375000       1.56250000E-02   3.47859878E-03  -9.61866026E-05   3.77678573E-02
  0.140625000       1.56250000E-02   3.25899781E-03   3.13774013E-04   3.74568403E-02
  0.171875000       1.56250000E-02   2.23619305E-03   7.07043975E-04   3.70890126E-02
  0.203125000       1.56250000E-02   4.04230464E-04   1.12295302E-03   3.66645902E-02
  0.234375000       1.56250000E-02  -2.32142606E-03   1.60076818E-03   3.61831933E-02
  0.265625000       1.56250000E-02  -6.06605783E-03   2.14197533E-03   3.56547907E-02
  0.296875000       1.56250000E-02  -1.09122358E-02   2.70236167E-03   3.51069644E-02
  0.328125000       1.56250000E-02  -1.68127362E-02   3.19634005E-03   3.45882475E-02
  0.359375000       1.56250000E-02  -2.35149488E-02   3.50413099E-03   3.41663510E-02
  0.390625000       1.56250000E-02  -3.05102076E-02   3.48943844E-03   3.39186452E-02
  0.421875000       1.56250000E-02  -3.70371342E-02   3.03583941E-03   3.39139588E-02
  0.453125000       1.56250000E-02  -4.21650037E-02   2.09039869E-03   3.41898054E-02
  0.484375000       1.56250000E-02  -4.49498221E-02   6.92786532E-04   3.47310528E-02
  0.515625000       1.56250000E-02  -4.46247384E-02  -1.01950543E-03   3.54558527E-02
  0.546875000       1.56250000E-02  -4.07914147E-02  -2.81545706E-03   3.62182595E-02
  0.578125000       1.56250000E-02  -3.35448310E-02  -4.43278346E-03   3.68189812E-02
  0.609375000       1.56250000E-02  -2.35111751E-02  -5.60252415E-03   3.70481797E-02
  0.640625000       1.56250000E-02  -1.18176192E-02  -6.09265035E-03   3.67465839E-02
  0.671875000       1.56250000E-02   3.79648991E-05  -5.76447276E-03   3.58671397E-02
  0.703125000       1.56250000E-02   1.04326680E-02  -4.63165343E-03   3.45079787E-02
  0.734375000       1.56250000E-02   1.79803986E-02  -2.91738077E-03   3.28838900E-02
  0.765625000       1.56250000E-02   2.19009854E-02  -1.00439228E-03   3.12555879E-02
  0.796875000       1.56250000E-02   2.22336389E-02   6.70638401E-04   2.98399422E-02
  0.828125000       1.56250000E-02   1.97605379E-02   1.80142245E-03   2.87509188E-02
  0.859375000       1.56250000E-02   1.56258047E-02   2.33231252E-03   2.80055813E-02
  0.890625000       1.56250000E-02   1.09030716E-02   2.38944404E-03   2.75570508E-02
  0.921875000       1.56250000E-02   6.38172869E-03   2.13093334E-03   2.73372419E-02
  0.953125000       1.56250000E-02   2.67861341E-03   1.57121767E-03   2.72878259E-02
  0.984375000       1.56250000E-02   5.53456543E-04   5.53147693E-04   2.73558870E-02
   1.56250000E-02   4.68750000E-02   7.49448140E-04  -1.70326489E-03   3.82118374E-02
   4.68750000E-02   4.68750000E-02   2.30931840E-03  -2.25781277E-03   3.81784812E-02
   7.81250000E-02   4.68750000E-02   3.27560189E-03  -1.14736543E-03   3.80396917E-02
  0.109375000       4.68750000E-02   2.61762389E-03   6.20178995E-04   3.78237814E-02
  0.140625000       4.68750000E-02  -9.50432150E-05   2.52510002E-03   3.75519171E-02
  0.171875000       4.68750000E-02  -5.04633738E-03   4.46529267E-03   3.72299738E-02
  0.203125000       4.68750000E-02  -1.23891681E-02   6.53502764E-03   3.68521698E-02
  0.234375000       4.68750000E-02  -2.22688131E-02   8.78960080E-03   3.64116728E-02
  0.265625000       4.68750000E-02  -3.46868001E-02   1.11114699E-02   3.59102935E-02
  0.296875000       4.68750000E-02  -4.93084043E-02   1.31964646E-02   3.53658535E-02
  0.328125000       4.68750000E-02  -6.53290376E-02   1.46193085E-02   3.48175392E-02
  0.359375000       4.68750000E-02  -8.14876407E-02   1.49380248E-02   3.43277603E-02
  0.390625000       4.68750000E-02  -9.62449312E-02   1.38042839E-02   3.39761451E-02
  0.421875000       4.68750000E-02 -0.108052529       1.10518355E-02   3.38424221E-02
  0.453125000       4.68750000E-02 -0.115598843       6.74494775E-03   3.39810476E-02
  0.484375000       4.68750000E-02 -0.117963403       1.18399493E-03   3.43949646E-02
  0.515625000       4.68750000E-02 -0.114684686      -5.11814142E-03   3.50172482E-02
  0.546875000       4.68750000E-02 -0.105757989      -1.14804888E-02   3.57046910E-02
  0.578125000       4.68750000E-02  -9.16233808E-02  -1.71526503E-02   3.62598337E-02
  0.609375000       4.68750000E-02  -7.31913596E-02  -2.13520210E-02   3.64703760E-02
  0.640625000       4.68750000E-02  -5.18611372E-02  -2.33705305E-02   3.61718461E-02
  0.671875000       4.68750000E-02  -2.94783004E-02  -2.27284394E-02   3.53120342E-02
  0.703125000       4.68750000E-02  -8.18426628E-03  -1.93595961E-02   3.39865610E-02
  0.734375000       4.68750000E-02   9.85988416E-03  -1.37842204E-02   3.24169137E-02
  0.765625000       4.68750000E-02   2.28820890E-02  -7.08299736E-03   3.08682062E-02
  0.796875000       4.68750000E-02   2.99502127E-02  -6.53998810E-04   2.95583047E-02
  0.828125000       4.68750000E-02   3.12099718E-02   4.33705794E-03   2.85926610E-02
  0.859375000       4.68750000E-02   2.77928598E-02   7.34625850E-03   2.79591009E-02
  0.890625000       4.68750000E-02   2.13974603E-02   8.49140622E-03   2.75891498E-02
  0.921875000       4.68750000E-02   1.37924496E-02   8.15312099E-03   2.74046138E-02
  0.953125000       4.68750000E-02   6.62621716E-03   6.41618110E-03   2.73525696E-02
  0.984375000       4.68750000E-02   1.67592708E-03   2.78177997E-03   2.74203233E-02
   1.56250000E-02   7.81250000E-02   4.85604396E-04  -2.94038351E-03   3.83640453E-02
   4.68750000E-02   7.81250000E-02   9.68406443E-04  -3.06804990E-03   3.83027755E-02
   7.81250000E-02   7.81250000E-02  -1.99687958E-04  -1.40529883E-04   3.81519943E-02
  0.109375000       7.81250000E-02  -4.03019600E-03   4.09665797E-03   3.79427858E-02
  0.140625000       7.81250000E-02  -1.10577401E-02   8.78370274E-03   3.76911163E-02
  0.171875000       7.81250000E-02  -2.16200985E-02   1.37152625E-02   3.73905785E-02
  0.203125000       7.81250000E-02  -3.59111726E-02   1.89139508E-02   3.70190740E-02
  0.234375000       7.81250000E-02  -5.38353808E-02   2.42096018E-02   3.65515240E-02
  0.265625000       7.81250000E-02  -7.47911185E-02   2.90603731E-02   3.59728336E-02
  0.296875000       7.81250000E-02  -9.75772887E-02   3.26506533E-02   3.52904163E-02
  0.328125000       7.81250000E-02 -0.120534852       3.41388322E-02   3.45450900E-02
  0.359375000       7.81250000E-02 -0.141864508       3.29024196E-02   3.38147804E-02
  0.390625000       7.81250000E-02 -0.159950167       2.86787190E-02   3.32047828E-02
  0.421875000       7.81250000E-02 -0.173550397       2.15812810E-02   3.28243189E-02
  0.453125000       7.81250000E-02 -0.181831390       1.20389201E-02   3.27555090E-02
  0.484375000       7.81250000E-02 -0.184299916       7.19297910E-04   3.30246352E-02
  0.515625000       7.81250000E-02 -0.180711463      -1.15244407E-02   3.35758477E-02
  0.546875000       7.81250000E-02 -0.171024621      -2.36916095E-02   3.42688970E-02
  0.578125000       7.81250000E-02 -0.155453026      -3.46516818E-02   3.49032730E-02
  0.609375000       7.81250000E-02 -0.134562910      -4.31790575E-02   3.52506414E-02
  0.640625000       7.81250000E-02 -0.109372519      -4.80679497E-02   3.51178460E-02
  0.671875000       7.81250000E-02  -8.14404041E-02  -4.83496562E-02   3.44174094E-02
  0.703125000       7.81250000E-02  -5.28694764E-02  -4.36067693E-02   3.32160741E-02
  0.734375000       7.81250000E-02  -2.61457544E-02  -3.43080536E-02   3.17279175E-02
  0.765625000       7.81250000E-02  -3.75543558E-03  -2.19745897E-02   3.02388538E-02
  0.796875000       7.81250000E-02   1.23602413E-02  -8.94891471E-03   2.89944522E-02
  0.828125000       7.81250000E-02   2.13478338E-02   2.38205213E-03   2.81183701E-02
  0.859375000       7.81250000E-02   2.36386657E-02   1.04250349E-02   2.76005194E-02
  0.890625000       7.81250000E-02   2.06932053E-02   1.47509929E-02   2.73417979E-02
  0.921875000       7.81250000E-02   1.45441573E-02   1.56450979E-02   2.72389613E-02
  0.953125000       7.81250000E-02   7.44612515E-03   1.31859779E-02   2.72288769E-02
  0.984375000       7.81250000E-02   1.97472307E-03   6.43154141E-03   2.73147989E-02
   1.56250000E-02  0.109375000      -1.94378285E-04  -3.23368842E-03   3.86375636E-02
   4.68750000E-02  0.109375000      -1.90250028E-03  -1.55413058E-03   3.85235921E-02
   7.81250000E-02  0.109375000      -6.64386060E-03   4.24977299E-03   3.83438803E-02
  0.109375000      0.109375000      -1.50905997E-02   1.19784158E-02   3.81182730E-02
  0.140625000      0.109375000      -2.77402066E-02   2.05739588E-02   3.78472619E-02
  0.171875000      0.109375000      -4.49067652E-02   2.96488460E-02   3.75017822E-02
  0.203125000      0.109375000      -6.65159300E-02   3.88755873E-02   3.70315462E-02
  0.234375000      0.109375000      -9.18657780E-02   4.75171059E-02   3.63840312E-02
  0.265625000      0.109375000     -0.119572416       5.44104911E-02   3.55272293E-02
  0.296875000      0.109375000     -0.147807837       5.83175868E-02   3.44711132E-02
  0.328125000      0.109375000     -0.174704313       5.83216585E-02   3.32806371E-02
  0.359375000      0.109375000     -0.198692039       5.40329516E-02   3.20725515E-02
  0.390625000      0.109375000     -0.218632579       4.55706343E-02   3.09948213E-02
  0.421875000      0.109375000     -0.233771309       3.34248319E-02   3.01949009E-02
  0.453125000      0.109375000     -0.243612647       1.83143001E-02   2.97863018E-02
  0.484375000      0.109375000     -0.247802794       1.09929952E-03   2.98210606E-02
  0.515625000      0.109375000     -0.246056929      -1.72420908E-02   3.02678961E-02
  0.546875000      0.109375000     -0.238144994      -3.55761573E-02   3.10059991E-02
  0.578125000      0.109375000     -0.223937601      -5.25495820E-02   3.18425670E-02
  0.609375000      0.109375000     -0.203499794      -6.66126013E-02   3.25373262E-02
  0.640625000      0.109375000     -0.177246600      -7.60814846E-02   3.28568853E-02
  0.671875000      0.109375000     -0.146157727      -7.93605298E-02   3.26455645E-02
  0.703125000      0.109375000     -0.111980796      -7.53469989E-02   3.18896323E-02
  0.734375000      0.109375000      -7.72961602E-02  -6.39792010E-02   3.07402723E-02
  0.765625000      0.109375000      -4.52715494E-02  -4.67211902E-02   2.94662192E-02
  0.796875000      0.109375000      -1.89962331E-02  -2.65959483E-02   2.83446386E-02
  0.828125000      0.109375000      -5.59055246E-04  -7.39820022E-03   2.75478419E-02
  0.859375000      0.109375000       9.59693640E-03   7.75598455E-03   2.71023456E-02
  0.890625000      0.109375000       1.25754289E-02   1.73845291E-02   2.69225016E-02
  0.921875000      0.109375000       1.04476381E-02   2.12859008E-02   2.68883221E-02
  0.953125000      0.109375000       5.78911789E-03   1.92992147E-02   2.69181766E-02
  0.984375000      0.109375000       1.58565247E-03   9.99102369E-03   2.70039961E-02
   1.56250000E-02  0.140625000      -1.23889034E-03  -1.80252129E-03   3.89994904E-02
   4.68750000E-02  0.140625000      -6.01739716E-03   3.49658309E-03   3.88160683E-02
   7.81250000E-02  0.140625000      -1.53155047E-02   1.32332500E-02   3.85918990E-02
  0.109375000      0.140625000      -2.92055197E-02   2.53264625E-02   3.83126847E-02
  0.140625000      0.140625000      -4.79845516E-02   3.86493802E-02   3.79470140E-02
  0.171875000      0.140625000      -7.16867000E-02   5.24370521E-02   3.74299325E-02
  0.203125000      0.140625000      -9.96973664E-02   6.57022446E-02   3.66743654E-02
  0.234375000      0.140625000     -0.130646378       7.69845247E-02   3.56022120E-02
  0.265625000      0.140625000     -0.162658721       8.46575350E-02   3.41802202E-02
  0.296875000      0.140625000     -0.193808556       8.74516442E-02   3.24461386E-02
  0.328125000      0.140625000     -0.222495049       8.47668052E-02   3.05138640E-02
  0.359375000      0.140625000     -0.247583494       7.66606182E-02   2.85558291E-02
  0.390625000      0.140625000     -0.268354744       6.36517256E-02   2.67705210E-02
  0.421875000      0.140625000     -0.284383893       4.65088896E-02   2.53463704E-02
  0.453125000      0.140625000     -0.295424163       2.61093322E-02   2.44300067E-02
  0.484375000      0.140625000     -0.301309407       3.37722851E-03   2.41022892E-02
  0.515625000      0.140625000     -0.301868469      -2.07093097E-02   2.43680347E-02
  0.546875000      0.140625000     -0.296846867      -4.50450480E-02   2.51462329E-02
  0.578125000      0.140625000     -0.285867393      -6.82702512E-02   2.62706652E-02
  0.609375000      0.140625000     -0.268477470      -8.87224823E-02   2.75094993E-02
  0.640625000      0.140625000     -0.244313508     -0.104391694       2.86005549E-02
  0.671875000      0.140625000     -0.213401452     -0.113054186       2.93072965E-02
  0.703125000      0.140625000     -0.176570863     -0.112663761       2.94877291E-02
  0.734375000      0.140625000     -0.135867059     -0.102053702       2.91509554E-02
  0.765625000      0.140625000      -9.47092474E-02  -8.18317831E-02   2.84643508E-02
  0.796875000      0.140625000      -5.74376881E-02  -5.50347827E-02   2.76857540E-02
  0.828125000      0.140625000      -2.80467551E-02  -2.67899428E-02   2.70449780E-02
  0.859375000      0.140625000      -8.58570822E-03  -2.47175503E-03   2.66514458E-02
  0.890625000      0.140625000       1.47803104E-03   1.45675838E-02   2.64865197E-02
  0.921875000      0.140625000       4.41560335E-03   2.32905820E-02   2.64577642E-02
  0.953125000      0.140625000       3.17497319E-03   2.31911745E-02   2.64833663E-02
  0.984375000      0.140625000       9.49785870E-04   1.25255724E-02   2.65404321E-02
   1.56250000E-02  0.171875000      -2.56957626E-03   2.00379686E-03   3.93748246E-02
   4.68750000E-02  0.171875000      -1.09831952E-02   1.28775444E-02   3.91123146E-02
   7.81250000E-02  0.171875000      -2.52558887E-02   2.74177380E-02   3.88220735E-02
  0.109375000      0.171875000      -4.46719676E-02   4.44428027E-02   3.84271368E-02
  0.140625000      0.171875000      -6.91681877E-02   6.28031269E-02   3.78466025E-02
  0.171875000      0.171875000      -9.83094275E-02   8.11216682E-02   3.69693451E-02
  0.203125000      0.171875000     -0.130893633       9.76077020E-02   3.56734097E-02
  0.234375000      0.171875000     -0.165091053      0.110221013       3.38729769E-02
  0.265625000      0.171875000     -0.198893666      0.117231935       3.15629989E-02
  0.296875000      0.171875000     -0.230555400      0.117685303       2.88391374E-02
  0.328125000      0.171875000     -0.258812189      0.111473516       2.58860365E-02
  0.359375000      0.171875000     -0.282896161       9.91239622E-02   2.29427293E-02
  0.390625000      0.171875000     -0.302459121       8.15206617E-02   2.02602632E-02
  0.421875000      0.171875000     -0.317471802       5.96801490E-02   1.80634242E-02
  0.453125000      0.171875000     -0.328101456       3.46066318E-02   1.65231247E-02
  0.484375000      0.171875000     -0.334566534       7.22897984E-03   1.57401524E-02
  0.515625000      0.171875000     -0.336987793      -2.15821303E-02   1.57444626E-02
  0.546875000      0.171875000     -0.335252285      -5.09308204E-02   1.65027790E-02
  0.578125000      0.171875000     -0.328901082      -7.97168091E-02   1.78930908E-02
  0.609375000      0.171875000     -0.317097992     -0.106470764       1.97261441E-02
  0.640625000      0.171875000     -0.298728347     -0.129179060       2.17549428E-02
  0.671875000      0.171875000     -0.272671044     -0.145238370       2.36992091E-02
  0.703125000      0.171875000     -0.238306135     -0.151677489       2.52918694E-02
  0.734375000      0.171875000     -0.196235508     -0.145816833       2.63447613E-02
  0.765625000      0.171875000     -0.149020195     -0.126444191       2.68129595E-02
  0.796875000      0.171875000     -0.101453304      -9.52632427E-02   2.68149376E-02
  0.828125000      0.171875000      -5.96640259E-02  -5.77440709E-02   2.65739784E-02
  0.859375000      0.171875000      -2.87196618E-02  -2.19254326E-02   2.63031870E-02
  0.890625000      0.171875000      -1.00554330E-02   5.29086404E-03   2.61177681E-02
  0.921875000      0.171875000      -1.43261650E-03   2.10044496E-02   2.60255672E-02
  0.953125000      0.171875000       8.51503981E-04   2.44313367E-02   2.59873699E-02
  0.984375000      0.171875000       4.42751159E-04   1.39172347E-02   2.59891879E-02
   1.56250000E-02  0.203125000      -4.03080415E-03   8.60197656E-03   3.96354124E-02
   4.68750000E-02  0.203125000      -1.62005126E-02   2.68577449E-02   3.92876752E-02
   7.81250000E-02  0.203125000      -3.52324396E-02   4.67367321E-02   3.88954729E-02
  0.109375000      0.203125000      -5.95209897E-02   6.88231513E-02   3.82938646E-02
  0.140625000      0.203125000      -8.85377228E-02   9.19306055E-02   3.73396650E-02
  0.171875000      0.203125000     -0.121330813      0.113923654       3.58749889E-02
  0.203125000      0.203125000     -0.156229377      0.132284075       3.37600932E-02
  0.234375000      0.203125000     -0.191178083      0.144686878       3.09342630E-02
  0.265625000      0.203125000     -0.224225134      0.149612382       2.74584629E-02
  0.296875000      0.203125000     -0.253862470      0.146601349       2.35173572E-02
  0.328125000      0.203125000     -0.279154480      0.136104435       1.93844866E-02
  0.359375000      0.203125000     -0.299735487      0.119156823       1.53688071E-02
  0.390625000      0.203125000     -0.315737128       9.70517248E-02   1.17628593E-02
  0.421875000      0.203125000     -0.327650219       7.10745230E-02   8.80549941E-03
  0.453125000      0.203125000     -0.336135507       4.23271060E-02   6.66436413E-03
  0.484375000      0.203125000     -0.341826558       1.16646225E-02   5.43451170E-03
  0.515625000      0.203125000     -0.345161676      -2.02615559E-02   5.14611369E-03
  0.546875000      0.203125000     -0.346256852      -5.28920516E-02   5.79516031E-03
  0.578125000      0.203125000     -0.344773471      -8.55906084E-02   7.30977207E-03
  0.609375000      0.203125000     -0.339807630     -0.117366597       9.57156345E-03
  0.640625000      0.203125000     -0.329855710     -0.146605730       1.24056367E-02
  0.671875000      0.203125000     -0.312915325     -0.170810610       1.55699681E-02
  0.703125000      0.203125000     -0.286868393     -0.186518729       1.87554285E-02
  0.734375000      0.203125000     -0.250267804     -0.189648703       2.16140132E-02
  0.765625000      0.203125000     -0.203513980     -0.176583484       2.38308497E-02
  0.796875000      0.203125000     -0.150072783     -0.146134228       2.52298843E-02
  0.828125000      0.203125000      -9.68427509E-02 -0.101894677       2.58548558E-02
  0.859375000      0.203125000      -5.23492843E-02  -5.32150045E-02   2.59423219E-02
  0.890625000      0.203125000      -2.24108845E-02  -1.20245973E-02   2.57851370E-02
  0.921875000      0.203125000      -6.72162930E-03   1.40054086E-02   2.55924985E-02
  0.953125000      0.203125000      -7.90414168E-04   2.32126042E-02   2.54439935E-02
  0.984375000      0.203125000       1.96548848E-04   1.45556703E-02   2.53718570E-02
   1.56250000E-02  0.234375000      -5.40538179E-03   1.80359259E-02   3.96066941E-02
   4.68750000E-02  0.234375000      -2.09439769E-02   4.51270901E-02   3.91676873E-02
   7.81250000E-02  0.234375000      -4.39325832E-02   7.04824403E-02   3.86221372E-02
  0.109375000      0.234375000      -7.18619972E-02   9.72901285E-02   3.77031676E-02
  0.140625000      0.234375000     -0.103709176      0.124322541       3.62030044E-02
  0.171875000      0.234375000     -0.138067588      0.148678631       3.39303799E-02
  0.203125000      0.234375000     -0.172960997      0.167317182       3.07596996E-02
  0.234375000      0.234375000     -0.206275031      0.177913427       2.66979877E-02
  0.265625000      0.234375000     -0.236211956      0.179367453       2.19120793E-02
  0.296875000      0.234375000     -0.261564523      0.171834752       1.67016629E-02
  0.328125000      0.234375000     -0.281818509      0.156416431       1.14349704E-02
  0.359375000      0.234375000     -0.297127396      0.134734780       6.47546956E-03
  0.390625000      0.234375000     -0.308167338      0.108515903       2.12543062E-03
  0.421875000      0.234375000     -0.315903842       7.92607963E-02  -1.40051648E-03
  0.453125000      0.234375000     -0.321348041       4.80713882E-02  -3.97396181E-03
  0.484375000      0.234375000     -0.325372100       1.56365875E-02  -5.53450780E-03
  0.515625000      0.234375000     -0.328597039      -1.76724438E-02  -6.07061479E-03
  0.546875000      0.234375000     -0.331327498      -5.16546741E-02  -5.59195969E-03
  0.578125000      0.234375000     -0.333474576      -8.61635804E-02  -4.13063494E-03
  0.609375000      0.234375000     -0.334421843     -0.120811783      -1.73403881E-03
  0.640625000      0.234375000     -0.332846314     -0.154687881       1.52266957E-03
  0.671875000      0.234375000     -0.326568186     -0.185947269       5.50851552E-03
  0.703125000      0.234375000     -0.312603742     -0.211394191       9.99501348E-03
  0.734375000      0.234375000     -0.287675112     -0.226303607       1.46176815E-02
  0.765625000      0.234375000     -0.249405697     -0.224953294       1.88799743E-02
  0.796875000      0.234375000     -0.198181227     -0.202431977       2.22531222E-02
  0.828125000      0.234375000     -0.139043003     -0.157967359       2.43832693E-02
  0.859375000      0.234375000      -8.19636658E-02  -9.87174511E-02   2.52912119E-02
  0.890625000      0.234375000      -3.81459929E-02  -4.02806364E-02   2.53604725E-02
  0.921875000      0.234375000      -1.27460742E-02   1.16984686E-03   2.50903554E-02
  0.953125000      0.234375000      -2.22974038E-03   1.95981972E-02   2.48114355E-02
  0.984375000      0.234375000       9.99707336E-05   1.48513364E-02   2.46523730E-02
   1.56250000E-02  0.265625000      -6.46865973E-03   2.99077202E-02   3.90979536E-02
   4.68750000E-02  0.265625000      -2.45246831E-02   6.68449104E-02   3.85617763E-02
   7.81250000E-02  0.265625000      -5.02292700E-02   9.74523872E-02   3.78039703E-02
  0.109375000      0.265625000      -8.02332237E-02  0.128248408       3.64586711E-02
  0.140625000      0.265625000     -0.113050990      0.158024520       3.42643633E-02
  0.171875000      0.265625000     -0.146940023      0.183220044       3.10229771E-02
  0.203125000      0.265625000     -0.179781824      0.200507820       2.66642682E-02
  0.234375000      0.265625000     -0.209544688      0.207797527       2.13063434E-02
  0.265625000      0.265625000     -0.234704018      0.204578459       1.52527997E-02
  0.296875000      0.265625000     -0.254482925      0.191755027       8.92600324E-03
  0.328125000      0.265625000     -0.268912017      0.171179876       2.76998687E-03
  0.359375000      0.265625000     -0.278706968      0.145076334      -2.83594732E-03
  0.390625000      0.265625000     -0.284993917      0.115502864      -7.62400031E-03
  0.421875000      0.265625000     -0.288992286       8.40106010E-02  -1.14403013E-02
  0.453125000      0.265625000     -0.291777551       5.15531078E-02  -1.42191993E-02
  0.484375000      0.265625000     -0.294175804       1.85792800E-02  -1.59489866E-02
  0.515625000      0.265625000     -0.296758592      -1.48054082E-02  -1.66423041E-02
  0.546875000      0.265625000     -0.299866676      -4.86812666E-02  -1.63321383E-02
  0.578125000      0.265625000     -0.303630471      -8.32243562E-02  -1.50317121E-02
  0.609375000      0.265625000     -0.307889819     -0.118543006      -1.27453050E-02
  0.640625000      0.265625000     -0.311954141     -0.154466838      -9.47026908E-03
  0.671875000      0.265625000     -0.314257324     -0.190142661      -5.21807652E-03
  0.703125000      0.265625000     -0.312017351     -0.223403111      -6.39525460E-05
  0.734375000      0.265625000     -0.301199019     -0.250041991       5.76953543E-03
  0.765625000      0.265625000     -0.277218699     -0.263465554       1.18178185E-02
  0.796875000      0.265625000     -0.236781001     -0.255583405       1.73519440E-02
  0.828125000      0.265625000     -0.180769652     -0.219967470       2.15547215E-02
  0.859375000      0.265625000     -0.116977766     -0.157590836       2.39263754E-02
  0.890625000      0.265625000      -5.95908612E-02  -8.26142579E-02   2.46394891E-02
  0.921875000      0.265625000      -2.15642415E-02  -1.99255385E-02   2.44204216E-02
  0.953125000      0.265625000      -4.34739701E-03   1.29579781E-02   2.40160432E-02
  0.984375000      0.265625000      -6.90297820E-05   1.48814330E-02   2.37550009E-02
   1.56250000E-02  0.296875000      -7.04293000E-03   4.34171110E-02   3.79504934E-02
   4.68750000E-02  0.296875000      -2.64347568E-02   9.07784849E-02   3.73143367E-02
   7.81250000E-02  0.296875000      -5.33784665E-02  0.126161873       3.62923145E-02
  0.109375000      0.296875000      -8.38100463E-02  0.159969598       3.44395228E-02
  0.140625000      0.296875000     -0.115853935      0.191160768       3.14630494E-02
  0.171875000      0.296875000     -0.147576094      0.215691626       2.71921270E-02
  0.203125000      0.296875000     -0.176879719      0.230179340       2.16520056E-02
  0.234375000      0.296875000     -0.201964676      0.232972637       1.51033234E-02
  0.265625000      0.296875000     -0.221718401      0.224316329       7.99492374E-03
  0.296875000      0.296875000     -0.235907733      0.205986306       8.51264107E-04
  0.328125000      0.296875000     -0.245137617      0.180609256      -5.85119892E-03
  0.359375000      0.296875000     -0.250581324      0.150887817      -1.17663834E-02
  0.390625000      0.296875000     -0.253590375      0.118989944      -1.66977849E-02
  0.421875000      0.296875000     -0.255358726       8.62930268E-02  -2.05687247E-02
  0.453125000      0.296875000     -0.256757915       5.34580424E-02  -2.33756080E-02
  0.484375000      0.296875000     -0.258341491       2.06590611E-02  -2.51471102E-02
  0.515625000      0.296875000     -0.260444105      -1.21969655E-02  -2.59173326E-02
  0.546875000      0.296875000     -0.263292313      -4.53306511E-02  -2.57288795E-02
  0.578125000      0.296875000     -0.267087758      -7.90130869E-02  -2.45959274E-02
  0.609375000      0.296875000     -0.272004545     -0.113575943      -2.25119144E-02
  0.640625000      0.296875000     -0.278031528     -0.149340793      -1.94444153E-02
  0.671875000      0.296875000     -0.284614563     -0.186381102      -1.53370928E-02
  0.703125000      0.296875000     -0.290086389     -0.223931879      -1.01357987E-02
  0.734375000      0.296875000     -0.291063786     -0.259353787      -3.86370998E-03
  0.765625000      0.296875000     -0.282306761     -0.286891341       3.23551195E-03
  0.796875000      0.296875000     -0.257788956     -0.297114044       1.05254697E-02
  0.828125000      0.296875000     -0.213583350     -0.278655291       1.69444904E-02
  0.859375000      0.296875000     -0.152247652     -0.224032640       2.13658549E-02
  0.890625000      0.296875000      -8.62447768E-02 -0.139564618       2.33319830E-02
  0.921875000      0.296875000      -3.45576108E-02  -5.26914336E-02   2.34685577E-02
  0.953125000      0.296875000      -7.90768489E-03   1.85465766E-03   2.29720082E-02
  0.984375000      0.296875000      -5.07454504E-04   1.43041005E-02   2.25913972E-02
   1.56250000E-02  0.328125000      -7.03065842E-03   5.74886054E-02   3.60860378E-02
   4.68750000E-02  0.328125000      -2.64229383E-02  0.115486428       3.53542119E-02
   7.81250000E-02  0.328125000      -5.30928969E-02  0.155062646       3.40373404E-02
  0.109375000      0.328125000      -8.24349672E-02  0.190838039       3.16438302E-02
  0.140625000      0.328125000     -0.112277865      0.222175419       2.78777573E-02
  0.171875000      0.328125000     -0.140647024      0.244765639       2.26282515E-02
  0.203125000      0.328125000     -0.165622801      0.255383313       1.60439238E-02
  0.234375000      0.328125000     -0.185767770      0.252998412       8.53659865E-03
  0.265625000      0.328125000     -0.200470313      0.238747761       6.81040692E-04
  0.296875000      0.328125000     -0.210047424      0.215323180      -6.93996949E-03
  0.328125000      0.328125000     -0.215563118      0.186020508      -1.38689922E-02
  0.359375000      0.328125000     -0.218424946      0.153785184      -1.98315717E-02
  0.390625000      0.328125000     -0.219948754      0.120628767      -2.47164126E-02
  0.421875000      0.328125000     -0.221085429       8.75627697E-02  -2.85161398E-02
  0.453125000      0.328125000     -0.222372234       5.48779033E-02  -3.12698521E-02
  0.484375000      0.328125000     -0.224038780       2.24929079E-02  -3.30264159E-02
  0.515625000      0.328125000     -0.226162791      -9.80064925E-03  -3.38276625E-02
  0.546875000      0.328125000     -0.228805721      -4.22323644E-02  -3.37118544E-02
  0.578125000      0.328125000     -0.232101589      -7.50167444E-02  -3.26977596E-02
  0.609375000      0.328125000     -0.236303687     -0.108450457      -3.07862386E-02
  0.640625000      0.328125000     -0.241760910     -0.142979503      -2.79526711E-02
  0.671875000      0.328125000     -0.248728588     -0.179189533      -2.41350401E-02
  0.703125000      0.328125000     -0.256876886     -0.217501640      -1.92298591E-02
  0.734375000      0.328125000     -0.264431298     -0.257251203      -1.31224710E-02
  0.765625000      0.328125000     -0.267226219     -0.294955671      -5.79934753E-03
  0.796875000      0.328125000     -0.258525193     -0.322268844       2.41904194E-03
  0.828125000      0.328125000     -0.230842710     -0.325389534       1.06072631E-02