 VARIABLES="X","Y","U","V","P"
 ZONE F=POINT, I=          40 , J=          40
   1.25000002E-02   1.25000002E-02   2.64692353E-05  -2.93168250E-05   1.37962392E-02
   3.75000015E-02   1.25000002E-02   4.73130567E-05   1.74580077E-06   1.36353392E-02
   6.25000000E-02   1.25000002E-02  -1.87868482E-05   5.66022136E-05   1.33125465E-02
   8.75000060E-02   1.25000002E-02  -1.94475171E-04   1.11360823E-04   1.28823267E-02
  0.112500004       1.25000002E-02  -4.71169828E-04   1.57654838E-04   1.23880208E-02
  0.137500003       1.25000002E-02  -8.29862081E-04   1.93419779E-04   1.18598519E-02
  0.162500009       1.25000002E-02  -1.24980137E-03   2.18977832E-04   1.13179376E-02
  0.187500000       1.25000002E-02  -1.71168917E-03   2.35458341E-04   1.07753901E-02
  0.212500006       1.25000002E-02  -2.19865446E-03   2.44158320E-04   1.02407150E-02
  0.237500012       1.25000002E-02  -2.69633019E-03   2.46284850E-04   9.71955713E-03
  0.262499988       1.25000002E-02  -3.19256587E-03   2.42846902E-04   9.21575632E-03
  0.287499994       1.25000002E-02  -3.67700821E-03   2.34631167E-04   8.73220526E-03
  0.312500000       1.25000002E-02  -4.14066855E-03   2.22214338E-04   8.27119313E-03
  0.337500006       1.25000002E-02  -4.57552774E-03   2.05988894E-04   7.83455558E-03
  0.362499982       1.25000002E-02  -4.97420225E-03   1.86197067E-04   7.42378458E-03
  0.387499988       1.25000002E-02  -5.32971369E-03   1.62999597E-04   7.03981426E-03
  0.412499994       1.25000002E-02  -5.63535467E-03   1.36508272E-04   6.68294076E-03
  0.437500000       1.25000002E-02  -5.88465016E-03   1.06839048E-04   6.35259971E-03
  0.462500006       1.25000002E-02  -6.07142132E-03   7.41733529E-05   6.04707468E-03
  0.487499982       1.25000002E-02  -6.18994888E-03   3.87888249E-05   5.76342503E-03
  0.512499988       1.25000002E-02  -6.23521209E-03   1.10079725E-06   5.49737550E-03
  0.537500024       1.25000002E-02  -6.20320067E-03  -3.82911931E-05   5.24313748E-03
  0.562500000       1.25000002E-02  -6.09128270E-03  -7.86125238E-05   4.99382243E-03
  0.587499976       1.25000002E-02  -5.89857344E-03  -1.18892523E-04   4.74133203E-03
  0.612500012       1.25000002E-02  -5.62631851E-03  -1.57971022E-04   4.47687181E-03
  0.637499988       1.25000002E-02  -5.27823251E-03  -1.94540640E-04   4.19136975E-03
  0.662500024       1.25000002E-02  -4.86074481E-03  -2.27193887E-04   3.87606770E-03
  0.687500000       1.25000002E-02  -4.38315328E-03  -2.54473503E-04   3.52328410E-03
  0.712499976       1.25000002E-02  -3.85763776E-03  -2.74955761E-04   3.12699121E-03
  0.737500012       1.25000002E-02  -3.29911127E-03  -2.87328818E-04   2.68370775E-03
  0.762499988       1.25000002E-02  -2.72492319E-03  -2.90472090E-04   2.19312916E-03
  0.787500024       1.25000002E-02  -2.15439638E-03  -2.83532543E-04   1.65878865E-03
  0.812500000       1.25000002E-02  -1.60822785E-03  -2.65990355E-04   1.08858850E-03
  0.837499976       1.25000002E-02  -1.10776688E-03  -2.37713699E-04   4.95309068E-04
  0.862500012       1.25000002E-02  -6.74146228E-04  -1.99051385E-04  -1.02962302E-04
  0.887499988       1.25000002E-02  -3.27129033E-04  -1.51025437E-04  -6.82291109E-04
  0.912500024       1.25000002E-02  -8.32545484E-05  -9.58380915E-05  -1.21216848E-03
  0.937500000       1.25000002E-02   4.78610782E-05  -3.82107646E-05  -1.65465986E-03
  0.962499976       1.25000002E-02   7.19084783E-05   1.12800644E-05  -1.96435419E-03
  0.987500012       1.25000002E-02   2.95998179E-05   2.87090588E-05  -2.09342525E-03
   1.25000002E-02   3.75000015E-02  -4.07587231E-06  -5.83546716E-05   1.39344279E-02
   3.75000015E-02   3.75000015E-02  -1.03374070E-04   9.38764424E-05   1.37743112E-02
   6.25000000E-02   3.75000015E-02  -4.13745351E-04   3.23525921E-04   1.34843979E-02
   8.75000060E-02   3.75000015E-02  -9.64435050E-04   5.53458580E-04   1.30994795E-02
  0.112500004       3.75000015E-02  -1.74141186E-03   7.51975225E-04   1.26503669E-02
  0.137500003       3.75000015E-02  -2.70948466E-03   9.08747548E-04   1.21609885E-02
  0.162500009       3.75000015E-02  -3.82585544E-03   1.02301233E-03   1.16488803E-02
  0.187500000       3.75000015E-02  -5.04728872E-03   1.09799858E-03   1.11265602E-02
  0.212500006       3.75000015E-02  -6.33349922E-03   1.13827910E-03   1.06028914E-02
  0.237500012       3.75000015E-02  -7.64841307E-03   1.14849792E-03   1.00842770E-02
  0.262499988       3.75000015E-02  -8.96029267E-03   1.13277964E-03   9.57542751E-03
  0.287499994       3.75000015E-02  -1.02412961E-02   1.09448819E-03   9.08004120E-03
  0.312500000       3.75000015E-02  -1.14667956E-02   1.03619497E-03   8.60113092E-03
  0.337500006       3.75000015E-02  -1.26146413E-02   9.59747937E-04   8.14110786E-03
  0.362499982       3.75000015E-02  -1.36645343E-02   8.66416201E-04   7.70196784E-03
  0.387499988       3.75000015E-02  -1.45975361E-02   7.57094065E-04   7.28495978E-03
  0.412499994       3.75000015E-02  -1.53957633E-02   6.32491661E-04   6.89081335E-03
  0.437500000       3.75000015E-02  -1.60423554E-02   4.93369182E-04   6.51929388E-03
  0.462500006       3.75000015E-02  -1.65216401E-02   3.40747414E-04   6.16910541E-03
  0.487499982       3.75000015E-02  -1.68194994E-02   1.76083558E-04   5.83783444E-03
  0.512499988       3.75000015E-02  -1.69239417E-02   1.42469798E-06   5.52189909E-03
  0.537500024       3.75000015E-02  -1.68258026E-02  -1.80413641E-04   5.21623623E-03
  0.562500000       3.75000015E-02  -1.65196098E-02  -3.65816610E-04   4.91504744E-03
  0.587499976       3.75000015E-02  -1.60044394E-02  -5.50355413E-04   4.61143814E-03
  0.612500012       3.75000015E-02  -1.52847581E-02  -7.28810090E-04   4.29785671E-03
  0.637499988       3.75000015E-02  -1.43711623E-02  -8.95335979E-04   3.96683253E-03
  0.662500024       3.75000015E-02  -1.32809281E-02  -1.04367605E-03   3.61109478E-03
  0.687500000       3.75000015E-02  -1.20382905E-02  -1.16739108E-03   3.22454004E-03
  0.712499976       3.75000015E-02  -1.06744105E-02  -1.26023742E-03   2.80269608E-03
  0.737500012       3.75000015E-02  -9.22693871E-03  -1.31649943E-03   2.34342483E-03
  0.762499988       3.75000015E-02  -7.73920491E-03  -1.33135437E-03   1.84756622E-03
  0.787500024       3.75000015E-02  -6.25898363E-03  -1.30122784E-03   1.31944311E-03
  0.812500000       3.75000015E-02  -4.83685685E-03  -1.22414262E-03   7.67282560E-04
  0.837499976       3.75000015E-02  -3.52415210E-03  -1.10003084E-03   2.03619333E-04
  0.862500012       3.75000015E-02  -2.37034517E-03  -9.31245100E-04  -3.54601361E-04
  0.887499988       3.75000015E-02  -1.41965295E-03  -7.23434612E-04  -8.85827874E-04
  0.912500024       3.75000015E-02  -7.06193445E-04  -4.87498270E-04  -1.36396103E-03
  0.937500000       3.75000015E-02  -2.46523676E-04  -2.43945833E-04  -1.75868836E-03
  0.962499976       3.75000015E-02  -2.76597875E-05  -3.23945060E-05  -2.03669886E-03
  0.987500012       3.75000015E-02   1.27514886E-05   6.89503649E-05  -2.16478365E-03
   1.25000002E-02   6.25000000E-02  -5.95343699E-05  -2.31198464E-06   1.41952503E-02
   3.75000015E-02   6.25000000E-02  -3.37091682E-04   3.97481374E-04   1.39997015E-02
   6.25000000E-02   6.25000000E-02  -9.44656786E-04   9.18596867E-04   1.37074944E-02
   8.75000060E-02   6.25000000E-02  -1.88877771E-03   1.43400521E-03   1.33381607E-02
  0.112500004       6.25000000E-02  -3.14296549E-03   1.88351423E-03   1.29117565E-02
  0.137500003       6.25000000E-02  -4.66016168E-03   2.24354910E-03   1.24454731E-02
  0.162500009       6.25000000E-02  -6.38383348E-03   2.50951108E-03   1.19529851E-02
  0.187500000       6.25000000E-02  -8.25542584E-03   2.68600648E-03   1.14448788E-02
  0.212500006       6.25000000E-02  -1.02186985E-02   2.78149103E-03   1.09292362E-02
  0.237500012       6.25000000E-02  -1.22218328E-02   2.80535733E-03   1.04123075E-02
  0.262499988       6.25000000E-02  -1.42181115E-02   2.76641711E-03   9.89914406E-03
  0.287499994       6.25000000E-02  -1.61657296E-02   2.67215865E-03   9.39379074E-03
  0.312500000       6.25000000E-02  -1.80271864E-02   2.52853939E-03   8.89976043E-03
  0.337500006       6.25000000E-02  -1.97685286E-02   2.34004017E-03   8.42004362E-03
  0.362499982       6.25000000E-02  -2.13585794E-02   2.10993504E-03   7.95698073E-03
  0.387499988       6.25000000E-02  -2.27683932E-02   1.84069085E-03   7.51242228E-03
  0.412499994       6.25000000E-02  -2.39709169E-02   1.53440039E-03   7.08750170E-03
  0.437500000       6.25000000E-02  -2.49409340E-02   1.19328871E-03   6.68242387E-03
  0.462500006       6.25000000E-02  -2.56553199E-02   8.20180983E-04   6.29635155E-03
  0.487499982       6.25000000E-02  -2.60935705E-02   4.18923271E-04   5.92747703E-03
  0.512499988       6.25000000E-02  -2.62386315E-02  -5.26777103E-06   5.57274790E-03
  0.537500024       6.25000000E-02  -2.60778777E-02  -4.45483194E-04   5.22791781E-03
  0.562500000       6.25000000E-02  -2.56042629E-02  -8.92948010E-04   4.88779834E-03
  0.587499976       6.25000000E-02  -2.48175170E-02  -1.33705209E-03   4.54638386E-03
  0.612500012       6.25000000E-02  -2.37253029E-02  -1.76545163E-03   4.19707689E-03
  0.637499988       6.25000000E-02  -2.23441869E-02  -2.16439227E-03   3.83323384E-03
  0.662500024       6.25000000E-02  -2.07003765E-02  -2.51921359E-03   3.44861345E-03
  0.687500000       6.25000000E-02  -1.88300293E-02  -2.81495857E-03   3.03802709E-03
  0.712499976       6.25000000E-02  -1.67791359E-02  -3.03715374E-03   2.59782118E-03
  0.737500012       6.25000000E-02  -1.46028362E-02  -3.17268050E-03   2.12665764E-03
  0.762499988       6.25000000E-02  -1.23641174E-02  -3.21059348E-03   1.62591843E-03
  0.787500024       6.25000000E-02  -1.01319458E-02  -3.14301718E-03   1.10027799E-03
  0.812500000       6.25000000E-02  -7.97874760E-03  -2.96600722E-03   5.57952211E-04
  0.837499976       6.25000000E-02  -5.97722502E-03  -2.68044695E-03   1.09064422E-05
  0.862500012       6.25000000E-02  -4.19642124E-03  -2.29324936E-03  -5.25271462E-04
  0.887499988       6.25000000E-02  -2.69686850E-03  -1.81927532E-03  -1.03152543E-03
  0.912500024       6.25000000E-02  -1.52445375E-03  -1.28495740E-03  -1.48591166E-03
  0.937500000       6.25000000E-02  -7.02610938E-04  -7.35285576E-04  -1.86459534E-03
  0.962499976       6.25000000E-02  -2.22668546E-04  -2.47023941E-04  -2.14348314E-03
  0.987500012       6.25000000E-02  -3.23760105E-05   4.69091465E-05  -2.30101706E-03
   1.25000002E-02   8.75000060E-02  -1.17824900E-04   1.67552134E-04   1.45238554E-02
   3.75000015E-02   8.75000060E-02  -5.84375754E-04   9.54683870E-04   1.42765176E-02
   6.25000000E-02   8.75000060E-02  -1.50200515E-03   1.86751632E-03   1.39617976E-02
   8.75000060E-02   8.75000060E-02  -2.84073851E-03   2.74893548E-03   1.35885719E-02
  0.112500004       8.75000060E-02  -4.55353130E-03   3.51667451E-03   1.31685110E-02
  0.137500003       8.75000060E-02  -6.57952204E-03   4.13483474E-03   1.27127618E-02
  0.162500009       8.75000060E-02  -8.85049812E-03   4.59432043E-03   1.22309774E-02
  0.187500000       8.75000060E-02  -1.12965368E-02   4.90050064E-03   1.17312651E-02
  0.212500006       8.75000060E-02  -1.38499178E-02   5.06557478E-03   1.12203397E-02
  0.237500012       8.75000060E-02  -1.64473336E-02   5.10403747E-03   1.07037127E-02
  0.262499988       8.75000060E-02  -1.90308280E-02   5.03004249E-03   1.01863584E-02
  0.287499994       8.75000060E-02  -2.15478539E-02   4.85604815E-03   9.67239961E-03
  0.312500000       8.75000060E-02  -2.39507370E-02   4.59224172E-03   9.16569494E-03
  0.337500006       8.75000060E-02  -2.61959899E-02   4.24657483E-03   8.66954774E-03
  0.362499982       8.75000060E-02  -2.82435920E-02   3.82511038E-03   8.18685349E-03
  0.387499988       8.75000060E-02  -3.00563965E-02   3.33262468E-03   7.72006903E-03
  0.412499994       8.75000060E-02  -3.15998122E-02   2.77335010E-03   7.27051729E-03
  0.437500000       8.75000060E-02  -3.28418314E-02   2.15178751E-03   6.83916546E-03
  0.462500006       8.75000060E-02  -3.37533318E-02   1.47344347E-03   6.42561540E-03
  0.487499982       8.75000060E-02  -3.43086943E-02   7.45628029E-04   6.02859771E-03
  0.512499988       8.75000060E-02  -3.44868377E-02  -2.19340218E-05   5.64553123E-03
  0.537500024       8.75000060E-02  -3.42724398E-02  -8.16649233E-04   5.27281873E-03
  0.562500000       8.75000060E-02  -3.36572900E-02  -1.62275182E-03   4.90568252E-03
  0.587499976       8.75000060E-02  -3.26417051E-02  -2.42129224E-03   4.53870604E-03
  0.612500012       8.75000060E-02  -3.12359594E-02  -3.19041917E-03   4.16577328E-03
  0.637499988       8.75000060E-02  -2.94614136E-02  -3.90588399E-03   3.78061971E-03
  0.662500024       8.75000060E-02  -2.73513626E-02  -4.54193680E-03   3.37738846E-03
  0.687500000       8.75000060E-02  -2.49514300E-02  -5.07244002E-03   2.95147067E-03
  0.712499976       8.75000060E-02  -2.23193392E-02  -5.47218136E-03   2.49937689E-03
  0.737500012       8.75000060E-02  -1.95239708E-02  -5.71846263E-03   2.02003540E-03
  0.762499988       8.75000060E-02  -1.66437123E-02  -5.79256332E-03   1.51491759E-03
  0.787500024       8.75000060E-02  -1.37640163E-02  -5.68135735E-03   9.88772372E-04
  0.812500000       8.75000060E-02  -1.09741632E-02  -5.37885772E-03   4.49483574E-04
  0.837499976       8.75000060E-02  -8.36324133E-03  -4.88790311E-03  -9.17003781E-05
  0.862500012       8.75000060E-02  -6.01537153E-03  -4.22208477E-03  -6.20421662E-04
  0.887499988       8.75000060E-02  -4.00416087E-03  -3.40861175E-03  -1.11977907E-03
  0.912500024       8.75000060E-02  -2.38649268E-03  -2.49293842E-03  -1.57125900E-03
  0.937500000       8.75000060E-02  -1.19599723E-03  -1.54673820E-03  -1.95593014E-03
  0.962499976       8.75000060E-02  -4.37202078E-04  -6.81281614E-04  -2.25636736E-03
  0.987500012       8.75000060E-02  -8.21582580E-05  -6.99770608E-05  -2.45938683E-03
   1.25000002E-02  0.112500004      -1.71808351E-04   4.49798506E-04   1.48780374E-02
   3.75000015E-02  0.112500004      -8.18781613E-04   1.76916714E-03   1.45743024E-02
   6.25000000E-02  0.112500004      -2.03750399E-03   3.17058992E-03   1.42269582E-02
   8.75000060E-02  0.112500004      -3.75832524E-03   4.48668981E-03   1.38381105E-02
  0.112500004      0.112500004      -5.90890367E-03   5.62368054E-03   1.34132933E-02
  0.137500003      0.112500004      -8.41168128E-03   6.53813640E-03   1.29587185E-02
  0.162500009      0.112500004      -1.11862496E-02   7.21829105E-03   1.24804517E-02
  0.187500000      0.112500004      -1.41525771E-02   7.67084816E-03   1.19840344E-02
  0.212500006      0.112500004      -1.72337219E-02   7.91195780E-03   1.14746056E-02
  0.237500012      0.112500004      -2.03575920E-02   7.96143338E-03   1.09567679E-02
  0.262499988      0.112500004      -2.34577414E-02   7.83910509E-03   1.04350317E-02
  0.287499994      0.112500004      -2.64734011E-02   7.56282452E-03   9.91350506E-03
  0.312500000      0.112500004      -2.93490496E-02   7.14752916E-03   9.39616188E-03
  0.337500006      0.112500004      -3.20337377E-02   6.60515623E-03   8.88672099E-03
  0.362499982      0.112500004      -3.44803855E-02   5.94512280E-03   8.38833861E-03
  0.387499988      0.112500004      -3.66452560E-02   5.17506059E-03   7.90422969E-03
  0.412499994      0.112500004      -3.84875983E-02   4.30189772E-03   7.43605662E-03
  0.437500000      0.112500004      -3.99696790E-02   3.33303260E-03   6.98541291E-03
  0.462500006      0.112500004      -4.10572439E-02   2.27742502E-03   6.55227201E-03
  0.487499982      0.112500004      -4.17202748E-02   1.14668440E-03   6.13608258E-03
  0.512499988      0.112500004      -4.19340730E-02  -4.39311261E-05   5.73458802E-03
  0.537500024      0.112500004      -4.16806340E-02  -1.27488025E-03   5.34452777E-03
  0.562500000      0.112500004      -4.09503020E-02  -2.52191909E-03   4.96151298E-03
  0.587499976      0.112500004      -3.97433713E-02  -3.75607330E-03   4.58020251E-03
  0.612500012      0.112500004      -3.80716920E-02  -4.94402274E-03   4.19482589E-03
  0.637499988      0.112500004      -3.59600782E-02  -6.04895316E-03   3.79893905E-03
  0.662500024      0.112500004      -3.34472246E-02  -7.03183329E-03   3.38693289E-03
  0.687500000      0.112500004      -3.05862054E-02  -7.85313454E-03   2.95372424E-03
  0.712499976      0.112500004      -2.74441428E-02  -8.47488083E-03   2.49578268E-03
  0.737500012      0.112500004      -2.41011847E-02  -8.86294339E-03   2.01204093E-03
  0.762499988      0.112500004      -2.06485540E-02  -8.98945890E-03   1.50358258E-03
  0.787500024      0.112500004      -1.71856023E-02  -8.83526169E-03   9.74810158E-04
  0.812500000      0.112500004      -1.38160065E-02  -8.39225203E-03   4.33240668E-04
  0.837499976      0.112500004      -1.06431544E-02  -7.66585860E-03  -1.10498026E-04
  0.862500012      0.112500004      -7.76482746E-03  -6.67765643E-03  -6.43106177E-04
  0.887499988      0.112500004      -5.26743568E-03  -5.46876527E-03  -1.14933169E-03
  0.912500024      0.112500004      -3.22022429E-03  -4.10461333E-03  -1.61297084E-03
  0.937500000      0.112500004      -1.67027907E-03  -2.68231332E-03  -2.01838696E-03
  0.962499976      0.112500004      -6.39814942E-04  -1.34165259E-03  -2.35226937E-03
  0.987500012      0.112500004      -1.27821244E-04  -2.82208726E-04  -2.60621472E-03
   1.25000002E-02  0.137500003      -2.20023081E-04   8.34382954E-04   1.52268568E-02
   3.75000015E-02  0.137500003      -1.03278540E-03   2.82784319E-03   1.48676550E-02
   6.25000000E-02  0.137500003      -2.53426307E-03   4.81367949E-03   1.44836139E-02
   8.75000060E-02  0.137500003      -4.61726682E-03   6.62905956E-03   1.40726697E-02
  0.112500004      0.137500003      -7.18271267E-03   8.17908347E-03   1.36360582E-02
  0.137500003      0.137500003      -1.01344343E-02   9.41913202E-03   1.31762000E-02
  0.162500009      0.137500003      -1.33787524E-02   1.03382710E-02   1.26960017E-02
  0.187500000      0.137500003      -1.68255679E-02   1.09463250E-02   1.21987974E-02
  0.212500006      0.137500003      -2.03896947E-02   1.12643205E-02   1.16880890E-02
  0.237500012      0.137500003      -2.39918064E-02   1.13179069E-02   1.11676184E-02
  0.262499988      0.137500003      -2.75587961E-02   1.11329453E-02   1.06412284E-02
  0.287499994      0.137500003      -3.10236178E-02   1.07329916E-02   1.01129096E-02
  0.312500000      0.137500003      -3.43247801E-02   1.01380665E-02   9.58677102E-03
  0.337500006      0.137500003      -3.74055877E-02   9.36440192E-03   9.06675216E-03
  0.362499982      0.137500003      -4.02134173E-02   8.42506625E-03   8.55660532E-03
  0.387499988      0.137500003      -4.26991731E-02   7.33087584E-03   8.05971958E-03
  0.412499994      0.137500003      -4.48169559E-02   6.09180611E-03   7.57859740E-03
  0.437500000      0.137500003      -4.65241708E-02   4.71847923E-03   7.11526256E-03
  0.462500006      0.137500003      -4.77818921E-02   3.22379265E-03   6.67029433E-03
  0.487499982      0.137500003      -4.85558100E-02   1.62427290E-03   6.24342263E-03
  0.512499988      0.137500003      -4.88174334E-02  -5.86126480E-05   5.83268376E-03
  0.537500024      0.137500003      -4.85456549E-02  -1.79743383E-03   5.43534989E-03
  0.562500000      0.137500003      -4.77285683E-02  -3.55833350E-03   5.04702982E-03
  0.587499976      0.137500003      -4.63653058E-02  -5.30092278E-03   4.66209464E-03
  0.612500012      0.137500003      -4.44679558E-02  -6.97878934E-03   4.27490892E-03
  0.637499988      0.137500003      -4.20632064E-02  -8.54069646E-03   3.87859787E-03
  0.662500024      0.137500003      -3.91934849E-02  -9.93235968E-03   3.46697844E-03
  0.687500000      0.137500003      -3.59175727E-02  -1.10988151E-02   3.03450879E-03
  0.712499976      0.137500003      -3.23104076E-02  -1.19872969E-02   2.57708877E-03
  0.737500012      0.137500003      -2.84619480E-02  -1.25504266E-02   2.09298031E-03
  0.762499988      0.137500003      -2.44749729E-02  -1.27497017E-02   1.58286968E-03
  0.787500024      0.137500003      -2.04618312E-02  -1.25588998E-02   1.05046388E-03
  0.812500000      0.137500003      -1.65401362E-02  -1.19673852E-02   5.02869836E-04
  0.837499976      0.137500003      -1.28276087E-02  -1.09833106E-02  -4.98645022E-05
  0.862500012      0.137500003      -9.43636429E-03  -9.63674020E-03  -5.95099002E-04
  0.887499988      0.137500003      -6.46701921E-03  -7.98317511E-03  -1.11849629E-03
  0.912500024      0.137500003      -4.00324585E-03  -6.10777037E-03  -1.60518591E-03
  0.937500000      0.137500003      -2.10781023E-03  -4.13098047E-03  -2.04113428E-03
  0.962499976      0.137500003      -8.21617490E-04  -2.21596425E-03  -2.41496018E-03
  0.987500012      0.137500003      -1.67304475E-04  -5.79459302E-04  -2.72006937E-03
   1.25000002E-02  0.162500009      -2.62938498E-04   1.31026818E-03   1.55474376E-02
   3.75000015E-02  0.162500009      -1.22657267E-03   4.11226787E-03   1.51358079E-02
   6.25000000E-02  0.162500009      -2.99036549E-03   6.77652890E-03   1.47142140E-02
   8.75000060E-02  0.162500009      -5.41355461E-03   9.15447809E-03   1.42780673E-02
  0.112500004      0.162500009      -8.37093871E-03   1.11586833E-02   1.38254995E-02
  0.137500003      0.162500009      -1.17470566E-02   1.27497120E-02   1.33559788E-02
  0.162500009      0.162500009      -1.54342055E-02   1.39216892E-02   1.28700398E-02
  0.187500000      0.162500009      -1.93319544E-02   1.46902250E-02   1.23689780E-02
  0.212500006      0.162500009      -2.33472083E-02   1.50828091E-02   1.18548553E-02
  0.237500012      0.162500009      -2.73942538E-02   1.51318759E-02   1.13304909E-02
  0.262499988      0.162500009      -3.13945636E-02   1.48698939E-02   1.07993158E-02
  0.287499994      0.162500009      -3.52762528E-02   1.43265221E-02   1.02648269E-02
  0.312500000      0.162500009      -3.89732644E-02   1.35270488E-02   9.73149296E-03
  0.337500006      0.162500009      -4.24245186E-02   1.24922153E-02   9.20360256E-03
  0.362499982      0.162500009      -4.55730930E-02   1.12388134E-02   8.68501142E-03
  0.387499988      0.162500009      -4.83655483E-02   9.78091732E-03   8.17991327E-03
  0.412499994      0.162500009      -5.07515892E-02   8.13163724E-03   7.69124413E-03
  0.437500000      0.162500009      -5.26841506E-02   6.30492577E-03   7.22146593E-03
  0.462500006      0.162500009      -5.41198105E-02   4.31770273E-03   6.77174795E-03
  0.487499982      0.162500009      -5.50197363E-02   2.19165371E-03   6.34229183E-03
  0.512499988      0.162500009      -5.53510748E-02  -4.50947555E-05   5.93137695E-03
  0.537500024      0.162500009      -5.50886616E-02  -2.35671783E-03   5.53639699E-03
  0.562500000      0.162500009      -5.42170331E-02  -4.69886605E-03   5.15280757E-03
  0.587499976      0.162500009      -5.27327135E-02  -7.01859035E-03   4.77497466E-03
  0.612500012      0.162500009      -5.06463200E-02  -9.25501063E-03   4.39635897E-03
  0.637499988      0.162500009      -4.79845442E-02  -1.13406945E-02   4.00965288E-03
  0.662500024      0.162500009      -4.47917953E-02  -1.32040819E-02   3.60787567E-03
  0.687500000      0.162500009      -4.11310643E-02  -1.47725660E-02   3.18441913E-03
  0.712499976      0.162500009      -3.70838940E-02  -1.59763061E-02   2.73432722E-03
  0.737500012      0.162500009      -3.27492803E-02  -1.67525243E-02   2.25452986E-03
  0.762499988      0.162500009      -2.82413550E-02  -1.70501731E-02   1.74527487E-03
  0.787500024      0.162500009      -2.36858465E-02  -1.68344192E-02   1.20940362E-03
  0.812500000      0.162500009      -1.92153007E-02  -1.60911381E-02   6.53437746E-04
  0.837499976      0.162500009      -1.49633922E-02  -1.48307513E-02   8.70782387E-05
  0.862500012      0.162500009      -1.10586844E-02  -1.30917737E-02  -4.77455498E-04
  0.887499988      0.162500009      -7.61839002E-03  -1.09440926E-02  -1.02595100E-03
  0.912500024      0.162500009      -4.74289525E-03  -8.49225838E-03  -1.54378882E-03
  0.937500000      0.162500009      -2.51204427E-03  -5.87877817E-03  -2.01717811E-03
  0.962499976      0.162500009      -9.84539161E-04  -3.28774471E-03  -2.43482646E-03
  0.987500012      0.162500009      -2.01338800E-04  -9.50073125E-04  -2.78984802E-03
   1.25000002E-02  0.187500000      -3.01571679E-04   1.86790212E-03   1.58221554E-02
   3.75000015E-02  0.187500000      -1.40320021E-03   5.60426665E-03   1.53615009E-02
   6.25000000E-02  0.187500000      -3.41055775E-03   9.03819595E-03   1.49030490E-02
   8.75000060E-02  0.187500000      -6.15333533E-03   1.20413639E-02   1.44404694E-02
  0.112500004      0.187500000      -9.48182121E-03   1.45403706E-02   1.39696915E-02
  0.137500003      0.187500000      -1.32614784E-02   1.65066570E-02   1.34878922E-02
  0.162500009      0.187500000      -1.73703097E-02   1.79437697E-02   1.29935984E-02
  0.187500000      0.187500000      -2.16973666E-02   1.88762229E-02   1.24864224E-02
  0.212500006      0.187500000      -2.61418149E-02   1.93400420E-02   1.19672837E-02
  0.237500012      0.187500000      -3.06121074E-02   1.93757974E-02   1.14380717E-02
  0.262499988      0.187500000      -3.50251310E-02   1.90234445E-02   1.09017789E-02
  0.287499994      0.187500000      -3.93051654E-02   1.83191821E-02   1.03619769E-02
  0.312500000      0.187500000      -4.33827229E-02   1.72938146E-02   9.82289668E-03
  0.337500006      0.187500000      -4.71934564E-02   1.59726851E-02   9.28942952E-03
  0.362499982      0.187500000      -5.06770983E-02   1.43762287E-02   8.76570120E-03
  0.387499988      0.187500000      -5.37766553E-02   1.25216302E-02   8.25629197E-03
  0.412499994      0.187500000      -5.64380139E-02   1.04248878E-02   7.76517624E-03
  0.437500000      0.187500000      -5.86098358E-02   8.10306892E-03   7.29471259E-03
  0.462500006      0.187500000      -6.02440313E-02   5.57690579E-03   6.84718974E-03
  0.487499982      0.187500000      -6.12967536E-02   2.87307566E-03   6.42278185E-03
  0.512499988      0.187500000      -6.17298335E-02   2.63673501E-05   6.02050172E-03
  0.537500024      0.187500000      -6.15127012E-02  -2.91878171E-03   5.63714979E-03
  0.562500000      0.187500000      -6.06247038E-02  -5.90700004E-03   5.26832277E-03
  0.587499976      0.187500000      -5.90576977E-02  -8.87187850E-03   4.90776962E-03
  0.612500012      0.187500000      -5.68187125E-02  -1.17367320E-02   4.54843696E-03
  0.637499988      0.187500000      -5.39324433E-02  -1.44161824E-02   4.18193452E-03
  0.662500024      0.187500000      -5.04433289E-02  -1.68191865E-02   3.79969389E-03
  0.687500000      0.187500000      -4.64169085E-02  -1.88529193E-02   3.39421630E-03
  0.712499976      0.187500000      -4.19402942E-02  -2.04276405E-02   2.95888679E-03
  0.737500012      0.187500000      -3.71212102E-02  -2.14623958E-02   2.48938380E-03
  0.762499988      0.187500000      -3.20856571E-02  -2.18909346E-02   1.98452570E-03
  0.787500024      0.187500000      -2.69740466E-02  -2.16676015E-02   1.44647760E-03
  0.812500000      0.187500000      -2.19360068E-02  -2.07730569E-02   8.81087617E-04
  0.837499976      0.187500000      -1.71240065E-02  -1.92189850E-02   2.97719729E-04
  0.862500012      0.187500000      -1.26862619E-02  -1.70519967E-02  -2.91143515E-04
  0.887499988      0.187500000      -8.75978451E-03  -1.43564343E-02  -8.71055177E-04
  0.912500024      0.187500000      -5.46427956E-03  -1.12565365E-02  -1.42653438E-03
  0.937500000      0.187500000      -2.89785257E-03  -7.91726168E-03  -1.94298453E-03
  0.962499976      0.187500000      -1.13563298E-03  -4.54435078E-03  -2.40773265E-03
  0.987500012      0.187500000      -2.31770726E-04  -1.38497353E-03  -2.81209149E-03
   1.25000002E-02  0.212500006      -3.37007223E-04   2.49983324E-03   1.60366409E-02
   3.75000015E-02  0.212500006      -1.56654778E-03   7.28839729E-03   1.55299697E-02
   6.25000000E-02  0.212500006      -3.80213559E-03   1.15801143E-02   1.50358044E-02
   8.75000060E-02  0.212500006      -6.84729312E-03   1.52705554E-02   1.45466160E-02
  0.112500004      0.212500006      -1.05296150E-02   1.83052793E-02   1.40564563E-02
  0.137500003      0.212500006      -1.46961864E-02   2.06714254E-02   1.35608986E-02
  0.162500009      0.212500006      -1.92108899E-02   2.23861746E-02   1.30564924E-02
  0.187500000      0.212500006      -2.39523090E-02   2.34861579E-02   1.25417626E-02
  0.212500006      0.212500006      -2.88120136E-02   2.40183808E-02   1.20163709E-02
  0.237500012      0.212500006      -3.36930454E-02   2.40331944E-02   1.14816474E-02
  0.262499988      0.212500006      -3.85083556E-02   2.35791132E-02   1.09401494E-02
  0.287499994      0.212500006      -4.31792215E-02   2.26994958E-02   1.03954710E-02
  0.312500000      0.212500006      -4.76337001E-02   2.14309897E-02   9.85204708E-03
  0.337500006      0.212500006      -5.18050790E-02   1.98034681E-02   9.31481272E-03
  0.362499982      0.212500006      -5.56305721E-02   1.78408399E-02   8.78881384E-03
  0.387499988      0.212500006      -5.90503067E-02   1.55630149E-02   8.27883184E-03
  0.412499994      0.212500006      -6.20066524E-02   1.29883643E-02   7.78939808E-03
  0.437500000      0.212500006      -6.44441098E-02   1.01364851E-02   7.32398871E-03
  0.462500006      0.212500006      -6.63096160E-02   7.03128427E-03   6.88506616E-03
  0.487499982      0.212500006      -6.75535053E-02   3.70388618E-03   6.47290424E-03
  0.512499988      0.212500006      -6.81310445E-02   1.95239612E-04   6.08724402E-03
  0.537500024      0.212500006      -6.80046082E-02  -3.44167696E-03   5.72471973E-03
  0.562500000      0.212500006      -6.71463162E-02  -7.14037102E-03   5.38069010E-03
  0.587499976      0.212500006      -6.55410141E-02  -1.08203348E-02   5.04807010E-03
  0.612500012      0.212500006      -6.31895289E-02  -1.43877836E-02   4.71891603E-03
  0.637499988      0.212500006      -6.01119250E-02  -1.77375674E-02   4.38333675E-03
  0.662500024      0.212500006      -5.63503429E-02  -2.07566284E-02   4.03163861E-03