 VARIABLES = "X", "Y", "U", "V", "P"
 ZONE F=POINT, I=          40 , J=          40
   1.25000002E-02   1.25000002E-02   5.09274360E-05  -5.09440506E-05   1.31000038E-02
   3.75000015E-02   1.25000002E-02   1.25826817E-04  -2.39940600E-05   1.29761435E-02
   6.25000000E-02   1.25000002E-02   9.85550505E-05   5.12219594E-05   1.26916096E-02
   8.75000060E-02   1.25000002E-02  -8.77841812E-05   1.35074311E-04   1.23209385E-02
  0.112500004       1.25000002E-02  -4.33869747E-04   2.10969214E-04   1.19284559E-02
  0.137500003       1.25000002E-02  -9.18030040E-04   2.73149897E-04   1.15610119E-02
  0.162500009       1.25000002E-02  -1.51184574E-03   3.20625782E-04   1.12499800E-02
  0.187500000       1.25000002E-02  -2.18686182E-03   3.54351243E-04   1.10152038E-02
  0.212500006       1.25000002E-02  -2.91716028E-03   3.75909876E-04   1.08686276E-02
  0.237500012       1.25000002E-02  -3.68000125E-03   3.86895699E-04   1.08170956E-02
  0.262499988       1.25000002E-02  -4.45556175E-03   3.88631830E-04   1.08643593E-02
  0.287499994       1.25000002E-02  -5.22630289E-03   3.82079510E-04   1.10122599E-02
  0.312500000       1.25000002E-02  -5.97625040E-03   3.67840606E-04   1.12614352E-02
  0.337500006       1.25000002E-02  -6.69034664E-03   3.46229499E-04   1.16115399E-02
  0.362499982       1.25000002E-02  -7.35396426E-03   3.17360973E-04   1.20609971E-02
  0.387499988       1.25000002E-02  -7.95261096E-03   2.81257904E-04   1.26068173E-02
  0.412499994       1.25000002E-02  -8.47184844E-03   2.37950808E-04   1.32439760E-02
  0.437500000       1.25000002E-02  -8.89740232E-03   1.87575381E-04   1.39649976E-02
  0.462500006       1.25000002E-02  -9.21545364E-03   1.30446046E-04   1.47594837E-02
  0.487499982       1.25000002E-02  -9.41306539E-03   6.71328016E-05   1.56135689E-02
  0.512499988       1.25000002E-02  -9.47881117E-03  -1.42213503E-06   1.65095441E-02
  0.537500024       1.25000002E-02  -9.40395612E-03  -7.34714631E-05   1.74241886E-02
  0.562500000       1.25000002E-02  -9.18343477E-03  -1.47090410E-04   1.83316488E-02
  0.587499976       1.25000002E-02  -8.81638005E-03  -2.20003101E-04   1.92053691E-02
  0.612500012       1.25000002E-02  -8.30694288E-03  -2.89475487E-04   2.00175587E-02
  0.637499988       1.25000002E-02  -7.66507257E-03  -3.52437579E-04   2.07405239E-02
  0.662500024       1.25000002E-02  -6.90701697E-03  -4.05658560E-04   2.13482380E-02
  0.687500000       1.25000002E-02  -6.05542399E-03  -4.45976271E-04   2.18182728E-02
  0.712499976       1.25000002E-02  -5.13893971E-03  -4.70548082E-04   2.21336521E-02
  0.737500012       1.25000002E-02  -4.19131294E-03  -4.77117457E-04   2.22846419E-02
  0.762499988       1.25000002E-02  -3.24995769E-03  -4.64274839E-04   2.22702008E-02
  0.787500024       1.25000002E-02  -2.35404633E-03  -4.31671448E-04   2.20990460E-02
  0.812500000       1.25000002E-02  -1.54222839E-03  -3.80179117E-04   2.17900537E-02
  0.837499976       1.25000002E-02  -8.50090641E-04  -3.11988464E-04   2.13721432E-02
  0.862500012       1.25000002E-02  -3.07421113E-04  -2.30707301E-04   2.08836235E-02
  0.887499988       1.25000002E-02   6.48560817E-05  -1.41592711E-04   2.03712024E-02
  0.912500024       1.25000002E-02   2.58675340E-04  -5.22464870E-05   1.98885314E-02
  0.937500000       1.25000002E-02   2.85286194E-04   2.56184703E-05   1.94938891E-02
  0.962499976       1.25000002E-02   1.86987105E-04   7.26654034E-05   1.92443468E-02
  0.987500012       1.25000002E-02   5.71572091E-05   5.71525634E-05   1.91788226E-02
   1.25000002E-02   3.75000015E-02   2.49771729E-05  -1.26887462E-04   1.32238474E-02
   3.75000015E-02   3.75000015E-02  -3.06602269E-05   3.25987967E-05   1.30984383E-02
   6.25000000E-02   3.75000015E-02  -3.64017033E-04   3.55158525E-04   1.28597450E-02
   8.75000060E-02   3.75000015E-02  -1.05709513E-03   7.10457214E-04   1.25588104E-02
  0.112500004       3.75000015E-02  -2.11251294E-03   1.03699346E-03   1.22407954E-02
  0.137500003       3.75000015E-02  -3.49084754E-03   1.30952580E-03   1.19413109E-02
  0.162500009       3.75000015E-02  -5.13390917E-03   1.52103393E-03   1.16862366E-02
  0.187500000       3.75000015E-02  -6.97812717E-03   1.67308573E-03   1.14933308E-02
  0.212500006       3.75000015E-02  -8.96145590E-03   1.77071616E-03   1.13742622E-02
  0.237500012       3.75000015E-02  -1.10263079E-02   1.81969989E-03   1.13364719E-02
  0.262499988       3.75000015E-02  -1.31201949E-02   1.82519737E-03   1.13845747E-02
  0.287499994       3.75000015E-02  -1.51951890E-02   1.79117825E-03   1.15212910E-02
  0.312500000       3.75000015E-02  -1.72069166E-02   1.72035198E-03   1.17480373E-02
  0.337500006       3.75000015E-02  -1.91135034E-02   1.61433895E-03   1.20650884E-02
  0.362499982       3.75000015E-02  -2.08747331E-02   1.47403369E-03   1.24713723E-02
  0.387499988       3.75000015E-02  -2.24515814E-02   1.30001479E-03   1.29644098E-02
  0.412499994       3.75000015E-02  -2.38061864E-02   1.09297177E-03   1.35397222E-02
  0.437500000       3.75000015E-02  -2.49022320E-02   8.54091020E-04   1.41905695E-02
  0.462500006       3.75000015E-02  -2.57057324E-02   5.85414120E-04   1.49074839E-02
  0.487499982       3.75000015E-02  -2.61862054E-02   2.90175522E-04   1.56778954E-02
  0.512499988       3.75000015E-02  -2.63181925E-02  -2.68089752E-05   1.64861288E-02
  0.537500024       3.75000015E-02  -2.60830112E-02  -3.58205638E-04   1.73099991E-02
  0.562500000       3.75000015E-02  -2.54706088E-02  -6.95367111E-04   1.81259513E-02
  0.587499976       3.75000015E-02  -2.44816132E-02  -1.02786266E-03   1.89104509E-02
  0.612500012       3.75000015E-02  -2.31292620E-02  -1.34349847E-03   1.96388736E-02
  0.637499988       3.75000015E-02  -2.14408599E-02  -1.62878109E-03   2.02867799E-02
  0.662500024       3.75000015E-02  -1.94586404E-02  -1.86967966E-03   2.08315905E-02
  0.687500000       3.75000015E-02  -1.72397494E-02  -2.05252995E-03   2.12540571E-02
  0.712499976       3.75000015E-02  -1.48552079E-02  -2.16510892E-03   2.15400290E-02
  0.737500012       3.75000015E-02  -1.23877078E-02  -2.19776854E-03   2.16819141E-02
  0.762499988       3.75000015E-02  -9.92822275E-03  -2.14454392E-03   2.16799304E-02
  0.787500024       3.75000015E-02  -7.57149840E-03  -2.00411328E-03   2.15428509E-02
  0.812500000       3.75000015E-02  -5.41054644E-03  -1.78057817E-03   2.12882124E-02
  0.837499976       3.75000015E-02  -3.53034958E-03  -1.48398802E-03   2.09419616E-02
  0.862500012       3.75000015E-02  -2.00094143E-03  -1.13084260E-03   2.05375440E-02
  0.887499988       3.75000015E-02  -8.69763084E-04  -7.44963065E-04   2.01145541E-02
  0.912500024       3.75000015E-02  -1.52888402E-04  -3.59614467E-04   1.97168123E-02
  0.937500000       3.75000015E-02   1.75787412E-04  -2.23390471E-05   1.93897709E-02
  0.962499976       3.75000015E-02   1.98727415E-04   1.95947214E-04   1.91765502E-02
  0.987500012       3.75000015E-02   7.40507894E-05   1.88349411E-04   1.91132557E-02
   1.25000002E-02   6.25000000E-02  -5.20727845E-05  -9.98363685E-05   1.35130761E-02
   3.75000015E-02   6.25000000E-02  -3.64184292E-04   3.73196468E-04   1.33340014E-02
   6.25000000E-02   6.25000000E-02  -1.14008179E-03   1.12370413E-03   1.30898654E-02
   8.75000060E-02   6.25000000E-02  -2.43421015E-03   1.92900770E-03   1.28128603E-02
  0.112500004       6.25000000E-02  -4.23266273E-03   2.67220312E-03   1.25327297E-02
  0.137500003       6.25000000E-02  -6.47905609E-03   3.29893455E-03   1.22741777E-02
  0.162500009       6.25000000E-02  -9.09466296E-03   3.79018579E-03   1.20561421E-02
  0.187500000       6.25000000E-02  -1.19922012E-02   4.14558593E-03   1.18923793E-02
  0.212500006       6.25000000E-02  -1.50841326E-02   4.37337579E-03   1.17925322E-02
  0.237500012       6.25000000E-02  -1.82868801E-02   4.48454265E-03   1.17632244E-02
  0.262499988       6.25000000E-02  -2.15223506E-02   4.48962115E-03   1.18089858E-02
  0.287499994       6.25000000E-02  -2.47178823E-02   4.39719763E-03   1.19329095E-02
  0.312500000       6.25000000E-02  -2.78054364E-02   4.21353569E-03   1.21369194E-02
  0.337500006       6.25000000E-02  -3.07206176E-02   3.94284585E-03   1.24219777E-02
  0.362499982       6.25000000E-02  -3.34019102E-02   3.58796958E-03   1.27877425E-02
  0.387499988       6.25000000E-02  -3.57902795E-02   3.15121980E-03   1.32325720E-02
  0.412499994       6.25000000E-02  -3.78293134E-02   2.63534160E-03   1.37528982E-02
  0.437500000       6.25000000E-02  -3.94659378E-02   2.04432150E-03   1.43431053E-02
  0.462500006       6.25000000E-02  -4.06515375E-02   1.38420600E-03   1.49948755E-02
  0.487499982       6.25000000E-02  -4.13435921E-02   6.63832529E-04   1.56971440E-02
  0.512499988       6.25000000E-02  -4.15076464E-02  -1.04510786E-04   1.64360553E-02
  0.537500024       6.25000000E-02  -4.11192700E-02  -9.04146698E-04   1.71898715E-02
  0.562500000       6.25000000E-02  -4.01665904E-02  -1.71459874E-03   1.79370176E-02
  0.587499976       6.25000000E-02  -3.86531688E-02  -2.51114136E-03   1.86557975E-02
  0.612500012       6.25000000E-02  -3.66004929E-02  -3.26534454E-03   1.93238221E-02
  0.637499988       6.25000000E-02  -3.40498127E-02  -3.94611480E-03   1.99184157E-02
  0.662500024       6.25000000E-02  -3.10631134E-02  -4.52135876E-03   2.04190817E-02
  0.687500000       6.25000000E-02  -2.77230181E-02  -4.95993532E-03   2.08082609E-02
  0.712499976       6.25000000E-02  -2.41312832E-02  -5.23407105E-03   2.10732017E-02
  0.737500012       6.25000000E-02  -2.04058476E-02  -5.32183284E-03   2.12072805E-02
  0.762499988       6.25000000E-02  -1.66762173E-02  -5.20967925E-03   2.12111957E-02
  0.787500024       6.25000000E-02  -1.30772553E-02  -4.89474135E-03   2.10933536E-02
  0.812500000       6.25000000E-02  -9.74151492E-03  -4.38671606E-03   2.08700672E-02
  0.837499976       6.25000000E-02  -6.79035205E-03  -3.70927458E-03   2.05648635E-02
  0.862500012       6.25000000E-02  -4.32414562E-03  -2.90122908E-03   2.02073529E-02
  0.887499988       6.25000000E-02  -2.41187587E-03  -2.01807753E-03   1.98316444E-02
  0.912500024       6.25000000E-02  -1.08026876E-03  -1.13502855E-03   1.94742680E-02
  0.937500000       6.25000000E-02  -3.02628207E-04  -3.53283103E-04   1.91718712E-02
  0.962499976       6.25000000E-02   1.26548221E-05   1.88629318E-04   1.89588238E-02
  0.987500012       6.25000000E-02   3.52898096E-05   2.97676947E-04   1.88658591E-02
   1.25000002E-02   8.75000060E-02  -1.44748206E-04   9.69397079E-05   1.38979852E-02
   3.75000015E-02   8.75000060E-02  -7.61508651E-04   1.10519107E-03   1.36343557E-02
   6.25000000E-02   8.75000060E-02  -2.04485375E-03   2.45083962E-03   1.33517496E-02
   8.75000060E-02   8.75000060E-02  -3.99297848E-03   3.84401297E-03   1.30672101E-02
  0.112500004       8.75000060E-02  -6.55830558E-03   5.12086321E-03   1.27977878E-02
  0.137500003       8.75000060E-02  -9.66088194E-03   6.19913079E-03   1.25583243E-02
  0.162500009       8.75000060E-02  -1.32020470E-02   7.04665156E-03   1.23606715E-02
  0.187500000       8.75000060E-02  -1.70753188E-02   7.65982550E-03   1.22137768E-02
  0.212500006       8.75000060E-02  -2.11737603E-02   8.04940518E-03   1.21243289E-02
  0.237500012       8.75000060E-02  -2.53941454E-02   8.23154114E-03   1.20973466E-02
  0.262499988       8.75000060E-02  -2.96387076E-02   8.22256133E-03   1.21366251E-02
  0.287499994       8.75000060E-02  -3.38154025E-02   8.03640205E-03   1.22451838E-02
  0.312500000       8.75000060E-02  -3.78373712E-02   7.68377306E-03   1.24254022E-02
  0.337500006       8.75000060E-02  -4.16221805E-02   7.17252214E-03   1.26788542E-02
  0.362499982       8.75000060E-02  -4.50912789E-02   6.50860276E-03   1.30061246E-02
  0.387499988       8.75000060E-02  -4.81698141E-02   5.69741335E-03   1.34066725E-02
  0.412499994       8.75000060E-02  -5.07870130E-02   4.74531436E-03   1.38780894E-02
  0.437500000       8.75000060E-02  -5.28770909E-02   3.66098038E-03   1.44159701E-02
  0.462500006       8.75000060E-02  -5.43807149E-02   2.45669181E-03   1.50136650E-02
  0.487499982       8.75000060E-02  -5.52468076E-02   1.14942063E-03   1.56612508E-02
  0.512499988       8.75000060E-02  -5.54347038E-02  -2.38220979E-04   1.63465571E-02
  0.537500024       8.75000060E-02  -5.49163818E-02  -1.67721463E-03   1.70484390E-02
  0.562500000       8.75000060E-02  -5.36792725E-02  -3.13141244E-03   1.77463591E-02
  0.587499976       8.75000060E-02  -5.17295562E-02  -4.55755275E-03   1.84199773E-02
  0.612500012       8.75000060E-02  -4.90949452E-02  -5.90630993E-03   1.90477911E-02
  0.637499988       8.75000060E-02  -4.58267033E-02  -7.12416181E-03   1.96081549E-02
  0.662500024       8.75000060E-02  -4.20008153E-02  -8.15599039E-03   2.00813264E-02
  0.687500000       8.75000060E-02  -3.77178937E-02  -8.94841366E-03   2.04500929E-02
  0.712499976       8.75000060E-02  -3.31016108E-02  -9.45369340E-03   2.07021683E-02
  0.737500012       8.75000060E-02  -2.82954089E-02  -9.63393413E-03   2.08308697E-02
  0.762499988       8.75000060E-02  -2.34572366E-02  -9.46545694E-03   2.08365545E-02
  0.787500024       8.75000060E-02  -1.87523887E-02  -8.94284341E-03   2.07270496E-02
  0.812500000       8.75000060E-02  -1.43444426E-02  -8.08237027E-03   2.05173809E-02
  0.837499976       8.75000060E-02  -1.03846351E-02  -6.92464784E-03   2.02292223E-02
  0.862500012       8.75000060E-02  -7.00020883E-03  -5.53653808E-03   1.98893268E-02
  0.887499988       8.75000060E-02  -4.28231899E-03  -4.01297677E-03   1.95278302E-02
  0.912500024       8.75000060E-02  -2.27434607E-03  -2.47975276E-03   1.91761162E-02
  0.937500000       8.75000060E-02  -9.61558952E-04  -1.09902688E-03   1.88646689E-02
  0.962499976       8.75000060E-02  -2.63025635E-04  -7.94814769E-05   1.86211392E-02
  0.987500012       8.75000060E-02  -2.64291521E-05   3.06524744E-04   1.84690189E-02
   1.25000002E-02  0.112500004      -2.38916065E-04   4.80558083E-04   1.43146198E-02
   3.75000015E-02  0.112500004      -1.17124617E-03   2.27055978E-03   1.39525235E-02
   6.25000000E-02  0.112500004      -2.98334612E-03   4.38079983E-03   1.36124492E-02
   8.75000060E-02  0.112500004      -5.60509600E-03   6.48381002E-03   1.33000594E-02
  0.112500004      0.112500004      -8.94398056E-03   8.38516001E-03   1.30221173E-02
  0.137500003      0.112500004      -1.28895389E-02   9.98285227E-03   1.27848899E-02
  0.162500009      0.112500004      -1.73207149E-02   1.12351589E-02   1.25936009E-02
  0.187500000      0.112500004      -2.21127942E-02   1.21365674E-02   1.24523994E-02
  0.212500006      0.112500004      -2.71425322E-02   1.27007412E-02   1.23646408E-02
  0.237500012      0.112500004      -3.22911963E-02   1.29491463E-02   1.23332897E-02
  0.262499988      0.112500004      -3.74458842E-02   1.29041150E-02   1.23612117E-02
  0.287499994      0.112500004      -4.24997173E-02   1.25852944E-02   1.24511225E-02
  0.312500000      0.112500004      -4.73513789E-02   1.20084295E-02   1.26057221E-02
  0.337500006      0.112500004      -5.19045219E-02   1.11857429E-02   1.28272716E-02
  0.362499982      0.112500004      -5.60674220E-02   1.01273023E-02   1.31173218E-02
  0.387499988      0.112500004      -5.97530603E-02   8.84281006E-03   1.34767238E-02
  0.412499994      0.112500004      -6.28796741E-02   7.34364986E-03   1.39043108E-02
  0.437500000      0.112500004      -6.53718263E-02   5.64479781E-03   1.43971508E-02
  0.462500006      0.112500004      -6.71619922E-02   3.76658980E-03   1.49500221E-02
  0.487499982      0.112500004      -6.81925565E-02   1.73611508E-03   1.55546851E-02
  0.512499988      0.112500004      -6.84180409E-02  -4.11604706E-04   1.62001811E-02
  0.537500024      0.112500004      -6.78073615E-02  -2.63290992E-03   1.68659668E-02
  0.562500000      0.112500004      -6.63468689E-02  -4.87340614E-03   1.75320078E-02
  0.587499976      0.112500004      -6.40437528E-02  -7.06847571E-03   1.81786660E-02
  0.612500012      0.112500004      -6.09290078E-02  -9.14482772E-03   1.87843908E-02
  0.637499988      0.112500004      -5.70597723E-02  -1.10232029E-02   1.93280093E-02
  0.662500024      0.112500004      -5.25207445E-02  -1.26219541E-02   1.97892413E-02
  0.687500000      0.112500004      -4.74243648E-02  -1.38618378E-02   2.01503523E-02
  0.712499976      0.112500004      -4.19095121E-02  -1.46714821E-02   2.03984603E-02
  0.737500012      0.112500004      -3.61383110E-02  -1.49936229E-02   2.05259994E-02
  0.762499988      0.112500004      -3.02907843E-02  -1.47915380E-02   2.05323286E-02
  0.787500024      0.112500004      -2.45571807E-02  -1.40552772E-02   2.04242785E-02
  0.812500000      0.112500004      -1.91281345E-02  -1.28069967E-02   2.02155579E-02
  0.837499976      0.112500004      -1.41828721E-02  -1.11051444E-02   1.99263841E-02
  0.862500012      0.112500004      -9.87617951E-03  -9.04720463E-03   1.95815321E-02
  0.887499988      0.112500004      -6.32505910E-03  -6.77136565E-03   1.92085691E-02
  0.912500024      0.112500004      -3.59645672E-03  -4.45798039E-03   1.88355613E-02
  0.937500000      0.112500004      -1.69763085E-03  -2.33245175E-03   1.84890218E-02
  0.962499976      0.112500004      -5.70858945E-04  -6.71399350E-04   1.81919690E-02
  0.987500012      0.112500004      -9.45632855E-05   1.85519893E-04   1.79623477E-02
   1.25000002E-02  0.137500003      -3.29510483E-04   1.04893639E-03   1.47102103E-02
   3.75000015E-02  0.137500003      -1.57129718E-03   3.87618993E-03   1.42457634E-02
   6.25000000E-02  0.137500003      -3.90830217E-03   6.92415331E-03   1.38388006E-02
   8.75000060E-02  0.137500003      -7.19961058E-03   9.85339284E-03   1.34864207E-02
  0.112500004      0.137500003      -1.13022216E-02   1.24569517E-02   1.31870545E-02
  0.137500003      0.137500003      -1.60703864E-02   1.46246646E-02   1.29396189E-02
  0.162500009      0.137500003      -2.13580560E-02   1.63120758E-02   1.27434349E-02
  0.187500000      0.137500003      -2.70219408E-02   1.75155103E-02   1.25980964E-02
  0.212500006      0.137500003      -3.29239368E-02   1.82534307E-02   1.25037441E-02
  0.237500012      0.137500003      -3.89324650E-02   1.85535513E-02   1.24612665E-02
  0.262499988      0.137500003      -4.49228510E-02   1.84447058E-02   1.24724805E-02
  0.287499994      0.137500003      -5.07770069E-02   1.79526098E-02   1.25398403E-02
  0.312500000      0.137500003      -5.63827977E-02   1.70984808E-02   1.26662040E-02
  0.337500006      0.137500003      -6.16335198E-02   1.58994775E-02   1.28548471E-02
  0.362499982      0.137500003      -6.64276183E-02   1.43704917E-02   1.31082777E-02
  0.387499988      0.137500003      -7.06688613E-02   1.25264358E-02   1.34286517E-02
  0.412499994      0.137500003      -7.42670596E-02   1.03847617E-02   1.38163762E-02
  0.437500000      0.137500003      -7.71392584E-02   7.96794891E-03   1.42701613E-02
  0.462500006      0.137500003      -7.92113394E-02   5.30561805E-03   1.47862080E-02
  0.487499982      0.137500003      -8.04200843E-02   2.43633101E-03   1.53578725E-02
  0.512499988      0.137500003      -8.07153955E-02  -5.91099029E-04   1.59754846E-02
  0.537500024      0.137500003      -8.00626576E-02  -3.71691165E-03   1.66192725E-02
  0.562500000      0.137500003      -7.84456730E-02  -6.86696079E-03   1.72689725E-02
  0.587499976      0.137500003      -7.58701861E-02  -9.95360594E-03   1.79050639E-02
  0.612500012      0.137500003      -7.23670572E-02  -1.28776487E-02   1.85059290E-02
  0.637499988      0.137500003      -6.79949820E-02  -1.55317597E-02   1.90493353E-02
  0.662500024      0.137500003      -6.28424361E-02  -1.78050566E-02   1.95140131E-02
  0.687500000      0.137500003      -5.70284575E-02  -1.95891727E-02   1.98810212E-02
  0.712499976      0.137500003      -5.07019386E-02  -2.07855869E-02   2.01354884E-02
  0.737500012      0.137500003      -4.40388918E-02  -2.13138219E-02   2.02684738E-02
  0.762499988      0.137500003      -3.72374803E-02  -2.11203415E-02   2.02775542E-02
  0.787500024      0.137500003      -3.05103380E-02  -2.01872773E-02   2.01681219E-02
  0.812500000      0.137500003      -2.40743309E-02  -1.85401179E-02   1.99524388E-02
  0.837499976      0.137500003      -1.81378387E-02  -1.62538290E-02   1.96494292E-02
  0.862500012      0.137500003      -1.28865130E-02  -1.34565830E-02   1.92827620E-02
  0.887499988      0.137500003      -8.46860837E-03  -1.03310533E-02   1.88785922E-02
  0.912500024      0.137500003      -4.98175342E-03  -7.11378735E-03   1.84634477E-02
  0.937500000      0.137500003      -2.46319245E-03  -4.09406982E-03   1.80619378E-02
  0.962499976      0.137500003      -8.85804591E-04  -1.61397748E-03   1.76948346E-02
  0.987500012      0.137500003      -1.62488359E-04  -7.15438582E-05   1.73774138E-02
   1.25000002E-02  0.162500009      -4.14926617E-04   1.79332169E-03   1.50413541E-02
   3.75000015E-02  0.162500009      -1.95250474E-03   5.91105316E-03   1.44760199E-02
   6.25000000E-02  0.162500009      -4.79654875E-03   1.00702085E-02   1.39988344E-02
   8.75000060E-02  0.162500009      -8.73755384E-03   1.39395222E-02   1.36000291E-02
  0.112500004      0.162500009      -1.35806985E-02   1.73164513E-02   1.32710505E-02
  0.137500003      0.162500009      -1.91427507E-02   2.00952590E-02   1.30045936E-02
  0.162500009      0.162500009      -2.52510719E-02   2.22373549E-02   1.27946455E-02
  0.187500000      0.162500009      -3.17434222E-02   2.37463526E-02   1.26367211E-02
  0.212500006      0.162500009      -3.84676754E-02   2.46487409E-02   1.25281513E-02
  0.237500012      0.162500009      -4.52812463E-02   2.49802582E-02   1.24679348E-02
  0.262499988      0.162500009      -5.20501547E-02   2.47772131E-02   1.24568865E-02
  0.287499994      0.162500009      -5.86479306E-02   2.40719523E-02   1.24973310E-02
  0.312500000      0.162500009      -6.49546236E-02   2.28915382E-02   1.25923455E-02
  0.337500006      0.162500009      -7.08560646E-02   2.12585032E-02   1.27460975E-02
  0.362499982      0.162500009      -7.62435347E-02   1.91929601E-02   1.29624447E-02
  0.387499988      0.162500009      -8.10139403E-02   1.67155582E-02   1.32449269E-02
  0.412499994      0.162500009      -8.50705951E-02   1.38504216E-02   1.35957357E-02
  0.437500000      0.162500009      -8.83243680E-02   1.06281824E-02   1.40149519E-02
  0.462500006      0.162500009      -9.06953812E-02   7.08840135E-03   1.45006534E-02
  0.487499982      0.162500009      -9.21149552E-02   3.28180171E-03   1.50476545E-02
  0.512499988      0.162500009      -9.25278813E-02  -7.28395069E-04   1.56474933E-02
  0.537500024      0.162500009      -9.18947086E-02  -4.86559980E-03   1.62817910E-02
  0.562500000      0.162500009      -9.01946425E-02  -9.03541222E-03   1.69293396E-02
  0.587499976      0.162500009      -8.74289498E-02  -1.31264068E-02   1.75703671E-02
  0.612500012      0.162500009      -8.36246014E-02  -1.70123912E-02   1.81824677E-02
  0.637499988      0.162500009      -7.88375288E-02  -2.05562264E-02   1.87422857E-02
  0.662500024      0.162500009      -7.31553510E-02  -2.36153901E-02   1.92266256E-02
  0.687500000      0.162500009      -6.66990057E-02  -2.60492340E-02   1.96140669E-02
  0.712499976      0.162500009      -5.96230030E-02  -2.77281124E-02   1.98875628E-02
  0.737500012      0.162500009      -5.21136746E-02  -2.85437182E-02   2.00353935E-02
  0.762499988      0.162500009      -4.43849042E-02  -2.84206830E-02   2.00529322E-02
  0.787500024      0.162500009      -3.66708897E-02  -2.73281522E-02   1.99432373E-02
  0.812500000      0.162500009      -2.92157494E-02  -2.52904557E-02   1.97170768E-02
  0.837499976      0.162500009      -2.22601183E-02  -2.23956686E-02   1.93922110E-02
  0.862500012      0.162500009      -1.60255264E-02  -1.88007057E-02   1.89916883E-02
  0.887499988      0.162500009      -1.06980372E-02  -1.47323627E-02   1.85414143E-02
  0.912500024      0.162500009      -6.41321158E-03  -1.04841944E-02   1.80680100E-02
  0.937500000      0.162500009      -3.24501540E-03  -6.41045673E-03   1.75961517E-02
  0.962499976      0.162500009      -1.20134745E-03  -2.91868206E-03   1.71466935E-02
  0.987500012      0.162500009      -2.28744117E-04  -4.62788361E-04   1.67349465E-02
   1.25000002E-02  0.187500000      -4.94727865E-04   2.70292000E-03   1.52712176E-02
   3.75000015E-02  0.187500000      -2.31100852E-03   8.35518911E-03   1.46092530E-02
   6.25000000E-02  0.187500000      -5.63632185E-03   1.37952939E-02   1.40622025E-02
   8.75000060E-02  0.187500000      -1.01968050E-02   1.87157951E-02   1.36143621E-02
  0.112500004      0.187500000      -1.57471336E-02   2.29335241E-02   1.32510774E-02
  0.137500003      0.187500000      -2.20665559E-02   2.63595358E-02   1.29593983E-02
  0.162500009      0.187500000      -2.89556161E-02   2.89703477E-02   1.27288289E-02
  0.187500000      0.187500000      -3.62332650E-02   3.07832472E-02   1.25513477E-02
  0.212500006      0.187500000      -4.37341481E-02   3.18368897E-02   1.24216639E-02
  0.237500012      0.187500000      -5.13060838E-02   3.21775414E-02   1.23373391E-02
  0.262499988      0.187500000      -5.88077232E-02   3.18503976E-02   1.22983456E-02
  0.287499994      0.187500000      -6.61065057E-02   3.08952481E-02   1.23068914E-02
  0.312500000      0.187500000      -7.30770379E-02   2.93453895E-02   1.23667605E-02
  0.337500006      0.187500000      -7.95999914E-02   2.72289626E-02   1.24829188E-02
  0.362499982      0.187500000      -8.55615884E-02   2.45714933E-02   1.26608154E-02
  0.387499988      0.187500000      -9.08537060E-02   2.13994924E-02   1.29052894E-02
  0.412499994      0.187500000      -9.53745097E-02   1.77438799E-02   1.32205114E-02
  0.437500000      0.187500000      -9.90295708E-02   1.36434883E-02   1.36081781E-02
  0.462500006      0.187500000     -0.101733461       9.14791878E-03   1.40683539E-02
  0.487499982      0.187500000     -0.103411645       4.31998074E-03   1.45971030E-02
  0.512499988      0.187500000     -0.104002699      -7.62654701E-04   1.51878418E-02
  0.537500024      0.187500000     -0.103460699      -6.00656401E-03   1.58234984E-02
  0.562500000      0.187500000     -0.101757795      -1.12975007E-02   1.64818242E-02
  0.587499976      0.187500000      -9.88875553E-02  -1.65003259E-02   1.71423499E-02
  0.612500012      0.187500000      -9.48691219E-02  -2.14613006E-02   1.77818406E-02
  0.637499988      0.187500000      -8.97513777E-02  -2.60121897E-02   1.83749758E-02
  0.662500024      0.187500000      -8.36164951E-02  -2.99765468E-02   1.88959725E-02
  0.687500000      0.187500000      -7.65828565E-02  -3.31781320E-02   1.93206705E-02
  0.712499976      0.187500000      -6.88066036E-02  -3.54515389E-02   1.96284261E-02
  0.737500012      0.187500000      -6.04812577E-02  -3.66550237E-02   1.98039524E-02
  0.762499988      0.187500000      -5.18346131E-02  -3.66848558E-02   1.98393464E-02
  0.787500024      0.187500000      -4.31223586E-02  -3.54903117E-02   1.97348148E-02
  0.812500000      0.187500000      -3.46178673E-02  -3.30879837E-02   1.94990244E-02
  0.837499976      0.187500000      -2.65981518E-02  -2.95735337E-02   1.91486515E-02
  0.862500012      0.187500000      -1.93267167E-02  -2.51289085E-02   1.87064931E-02
  0.887499988      0.187500000      -1.30348131E-02  -2.00235918E-02   1.81992687E-02
  0.912500024      0.187500000      -7.90359266E-03  -1.46090472E-02   1.76550318E-02
  0.937500000      0.187500000      -4.05022362E-03  -9.30720568E-03   1.71003714E-02
  0.962499976      0.187500000      -1.52105477E-03  -4.59480518E-03   1.65583603E-02
  0.987500012      0.187500000      -2.94404192E-04  -9.85948485E-04   1.60465576E-02
   1.25000002E-02  0.212500006      -5.68763178E-04   3.76635185E-03   1.53674968E-02
   3.75000015E-02  0.212500006      -2.64481339E-03   1.11839566E-02   1.46147162E-02
   6.25000000E-02  0.212500006      -6.42075622E-03   1.80676393E-02   1.40004195E-02
   8.75000060E-02  0.212500006      -1.15633644E-02   2.41464078E-02   1.35033783E-02
  0.112500004      0.212500006      -1.77797601E-02   2.92695109E-02   1.31033715E-02
  0.137500003      0.212500006      -2.48132534E-02   3.33763435E-02   1.27824545E-02
  0.162500009      0.212500006      -3.24384719E-02   3.64677086E-02   1.25260083E-02
  0.187500000      0.212500006      -4.04563472E-02   3.85813043E-02   1.23229511E-02
  0.212500006      0.212500006      -4.86892983E-02   3.97725813E-02   1.21659385E-02
  0.237500012      0.212500006      -5.69768995E-02   4.01013121E-02   1.20512452E-02
  0.262499988      0.212500006      -6.51720911E-02   3.96233797E-02   1.19784568E-02
  0.287499994      0.212500006      -7.31380582E-02   3.83869410E-02   1.19498875E-02
  0.312500000      0.212500006      -8.07458833E-02   3.64319868E-02   1.19699948E-02
  0.337500006      0.212500006      -8.78729969E-02   3.37923542E-02   1.20450230E-02
  0.362499982      0.212500006      -9.44022834E-02   3.04989256E-02   1.21816229E-02
  0.387499988      0.212500006     -0.100221962       2.65838057E-02   1.23867113E-02
  0.412499994      0.212500006     -0.105225973       2.20843367E-02   1.26661249E-02
  0.437500000      0.212500006     -0.109314993       1.70470588E-02   1.30235627E-02
  0.462500006      0.212500006     -0.112397909       1.15310978E-02   1.34608606E-02
  0.487499982      0.212500006     -0.114393696       5.61070768E-03   1.39764734E-02
  0.512499988      0.212500006     -0.115233444      -6.22646068E-04   1.45641193E-02
  0.537500024      0.212500006     -0.114862770      -7.05928635E-03   1.52106835E-02
  0.562500000      0.212500006     -0.113244161      -1.35663506E-02   1.58912670E-02
  0.587499976      0.212500006     -0.110360250      -1.99857075E-02   1.65853202E-02
  0.612500012      0.212500006     -0.106218517      -2.61361115E-02   1.72681063E-02
  0.637499988      0.212500006     -0.100856364      -3.18173133E-02   1.79122593E-02
  0.662500024      0.212500006      -9.43459868E-02  -3.68167423E-02   1.84886754E-02