 VARIABLES="X","Y","U","V","P"
 ZONE F=POINT, I=          32 , J=          32
   1.56250000E-02   1.56250000E-02   3.94865841E-04  -3.94959643E-04   1.56600252E-02
   4.68750000E-02   1.56250000E-02   1.27743231E-03  -4.87827405E-04   1.56210633E-02
   7.81250000E-02   1.56250000E-02   2.00862926E-03  -2.43621776E-04   1.54853482E-02
  0.109375000       1.56250000E-02   2.16466375E-03   8.73412282E-05   1.52755845E-02
  0.140625000       1.56250000E-02   1.66009273E-03   4.16994590E-04   1.50102079E-02
  0.171875000       1.56250000E-02   5.14555839E-04   7.28319923E-04   1.47012547E-02
  0.203125000       1.56250000E-02  -1.24780613E-03   1.03383488E-03   1.43542858E-02
  0.234375000       1.56250000E-02  -3.62616731E-03   1.34433433E-03   1.39766913E-02
  0.265625000       1.56250000E-02  -6.62992708E-03   1.65924779E-03   1.35825165E-02
  0.296875000       1.56250000E-02  -1.02531295E-02   1.96379190E-03   1.31927365E-02
  0.328125000       1.56250000E-02  -1.44513687E-02   2.23429920E-03   1.28362551E-02
  0.359375000       1.56250000E-02  -1.91280805E-02   2.44228193E-03   1.25489291E-02
  0.390625000       1.56250000E-02  -2.41285227E-02   2.55804183E-03   1.23715810E-02
  0.421875000       1.56250000E-02  -2.92408075E-02   2.55413260E-03   1.23468507E-02
  0.453125000       1.56250000E-02  -3.42032611E-02   2.40821321E-03   1.25153977E-02
  0.484375000       1.56250000E-02  -3.87166180E-02   2.10503396E-03   1.29112694E-02
  0.515625000       1.56250000E-02  -4.24591899E-02   1.63742667E-03   1.35568753E-02
  0.546875000       1.56250000E-02  -4.51039895E-02   1.00725319E-03   1.44572183E-02
  0.578125000       1.56250000E-02  -4.63402346E-02   2.28860430E-04   1.55939031E-02
  0.609375000       1.56250000E-02  -4.59174812E-02  -6.51771377E-04   1.68941543E-02
  0.640625000       1.56250000E-02  -4.35706824E-02  -1.69520767E-03   1.82288550E-02
  0.671875000       1.56250000E-02  -3.90961096E-02  -2.77957972E-03   1.94834918E-02
  0.703125000       1.56250000E-02  -3.25597674E-02  -3.75700090E-03   2.05219220E-02
  0.734375000       1.56250000E-02  -2.43412443E-02  -4.46177647E-03   2.12139785E-02
  0.765625000       1.56250000E-02  -1.51664643E-02  -4.71327454E-03   2.14704052E-02
  0.796875000       1.56250000E-02  -6.11672876E-03  -4.33672732E-03   2.12807655E-02
  0.828125000       1.56250000E-02   1.43158017E-03  -3.21183866E-03   2.07468923E-02
  0.859375000       1.56250000E-02   6.12649694E-03  -1.48331898E-03   2.00513136E-02
  0.890625000       1.56250000E-02   7.45265838E-03   1.56932292E-04   1.93900168E-02
  0.921875000       1.56250000E-02   6.07822090E-03   1.21729122E-03   1.89133808E-02
  0.953125000       1.56250000E-02   3.31512396E-03   1.54559873E-03   1.86702181E-02
  0.984375000       1.56250000E-02   8.84711277E-04   8.84647074E-04   1.86516214E-02
   1.56250000E-02   4.68750000E-02   4.87346348E-04  -1.27739296E-03   1.56976003E-02
   4.68750000E-02   4.68750000E-02   1.28560013E-03  -1.28672214E-03   1.56535357E-02
   7.81250000E-02   4.68750000E-02   1.25656428E-03  -1.47457904E-04   1.55276889E-02
  0.109375000       4.68750000E-02  -2.39294022E-04   1.33044622E-03   1.53428838E-02
  0.140625000       4.68750000E-02  -3.36186565E-03   2.80050095E-03   1.51088722E-02
  0.171875000       4.68750000E-02  -8.06491822E-03   4.19289758E-03   1.48315849E-02
  0.203125000       4.68750000E-02  -1.42555917E-02   5.52181900E-03   1.45133957E-02
  0.234375000       4.68750000E-02  -2.18099952E-02   6.78867381E-03   1.41592119E-02
  0.265625000       4.68750000E-02  -3.05489823E-02   7.95724615E-03   1.37799866E-02
  0.296875000       4.68750000E-02  -4.02186364E-02   8.95827636E-03   1.33943260E-02
  0.328125000       4.68750000E-02  -5.04891276E-02   9.70820710E-03   1.30292913E-02
  0.359375000       4.68750000E-02  -6.09671995E-02   1.01228580E-02   1.27198016E-02
  0.390625000       4.68750000E-02  -7.12162107E-02   1.01266485E-02   1.25069758E-02
  0.421875000       4.68750000E-02  -8.07776749E-02   9.65902023E-03   1.24350162E-02
  0.453125000       4.68750000E-02  -8.91909152E-02   8.67877807E-03   1.25471354E-02
  0.484375000       4.68750000E-02  -9.60098505E-02   7.16652675E-03   1.28807109E-02
  0.515625000       4.68750000E-02 -0.100817107       5.12552308E-03   1.34620536E-02
  0.546875000       4.68750000E-02 -0.103235818       2.58240616E-03   1.43007524E-02
  0.578125000       4.68750000E-02 -0.102937624      -4.08544438E-04   1.53855234E-02
  0.609375000       4.68750000E-02  -9.95793119E-02  -3.79577256E-03   1.65985655E-02
  0.640625000       4.68750000E-02  -9.29914042E-02  -7.48631358E-03   1.78696718E-02
  0.671875000       4.68750000E-02  -8.33085030E-02  -1.11464132E-02   1.90749690E-02
  0.703125000       4.68750000E-02  -7.08625913E-02  -1.43729448E-02   2.00787671E-02
  0.734375000       4.68750000E-02  -5.62273227E-02  -1.67001858E-02   2.07545161E-02
  0.765625000       4.68750000E-02  -4.02734466E-02  -1.76041126E-02   2.10176539E-02
  0.796875000       4.68750000E-02  -2.42200717E-02  -1.65495835E-02   2.08625030E-02
  0.828125000       4.68750000E-02  -9.64144710E-03  -1.31264795E-02   2.03866754E-02
  0.859375000       4.68750000E-02   1.57776184E-03  -7.48333428E-03   1.97812393E-02
  0.890625000       4.68750000E-02   7.57626025E-03  -1.16821181E-03   1.92219876E-02
  0.921875000       4.68750000E-02   8.12424161E-03   3.36841564E-03   1.88278742E-02
  0.953125000       4.68750000E-02   5.13991341E-03   5.14143612E-03   1.86302084E-02
  0.984375000       4.68750000E-02   1.54477358E-03   3.31397844E-03   1.86244249E-02
   1.56250000E-02   7.81250000E-02   9.93060094E-05  -1.86430279E-03   1.58407316E-02
   4.68750000E-02   7.81250000E-02  -4.51587955E-04  -9.47751163E-04   1.57686453E-02
   7.81250000E-02   7.81250000E-02  -2.82547576E-03   1.91585673E-03   1.56364255E-02
  0.109375000       7.81250000E-02  -7.36489799E-03   5.30179264E-03   1.54587924E-02
  0.140625000       7.81250000E-02  -1.40261967E-02   8.61242972E-03   1.52390376E-02
  0.171875000       7.81250000E-02  -2.26394869E-02   1.16967419E-02   1.49734356E-02
  0.203125000       7.81250000E-02  -3.29524167E-02   1.45210428E-02   1.46577079E-02
  0.234375000       7.81250000E-02  -4.46387827E-02   1.70297176E-02   1.42920893E-02
  0.265625000       7.81250000E-02  -5.73036745E-02   1.91196110E-02   1.38846366E-02
  0.296875000       7.81250000E-02  -7.04984516E-02   2.06599068E-02   1.34528466E-02
  0.328125000       7.81250000E-02  -8.37413818E-02   2.15196274E-02   1.30243916E-02
  0.359375000       7.81250000E-02  -9.65383053E-02   2.15860959E-02   1.26364548E-02
  0.390625000       7.81250000E-02 -0.108400926       2.07747482E-02   1.23338681E-02
  0.421875000       7.81250000E-02 -0.118862405       1.90335996E-02   1.21655781E-02
  0.453125000       7.81250000E-02 -0.127489805       1.63445882E-02   1.21803619E-02
  0.484375000       7.81250000E-02 -0.133893371       1.27229923E-02   1.24212084E-02
  0.515625000       7.81250000E-02 -0.137732789       8.21550190E-03   1.29196532E-02
  0.546875000       7.81250000E-02 -0.138719574       2.89767073E-03   1.36900013E-02
  0.578125000       7.81250000E-02 -0.136613533      -3.12835420E-03   1.46984495E-02
  0.609375000       7.81250000E-02 -0.131282210      -9.76594910E-03   1.58637054E-02
  0.640625000       7.81250000E-02 -0.122768223      -1.66184306E-02   1.71151888E-02
  0.671875000       7.81250000E-02 -0.111253932      -2.32119672E-02   1.83286481E-02
  0.703125000       7.81250000E-02  -9.70401093E-02  -2.89676636E-02   1.93670988E-02
  0.734375000       7.81250000E-02  -8.05925205E-02  -3.31889093E-02   2.01013777E-02
  0.765625000       7.81250000E-02  -6.26014546E-02  -3.50609459E-02   2.04411279E-02
  0.796875000       7.81250000E-02  -4.40452248E-02  -3.37029696E-02   2.03702636E-02
  0.828125000       7.81250000E-02  -2.62465496E-02  -2.83509940E-02   1.99728310E-02
  0.859375000       7.81250000E-02  -1.08870193E-02  -1.88381281E-02   1.94246508E-02
  0.890625000       7.81250000E-02   4.27367631E-05  -6.74220733E-03   1.89137347E-02
  0.921875000       7.81250000E-02   4.72679175E-03   3.70986108E-03   1.85476951E-02
  0.953125000       7.81250000E-02   3.99293378E-03   8.51767324E-03   1.83770172E-02
  0.984375000       7.81250000E-02   1.33340631E-03   6.19198289E-03   1.83706805E-02
   1.56250000E-02  0.109375000      -6.27421134E-04  -1.33645232E-03   1.60693545E-02
   4.68750000E-02  0.109375000      -3.36266658E-03   1.80994452E-03   1.59482043E-02
   7.81250000E-02  0.109375000      -8.88990238E-03   7.05863442E-03   1.57935731E-02
  0.109375000      0.109375000      -1.68580990E-02   1.26660019E-02   1.56035312E-02
  0.140625000      0.109375000      -2.69267522E-02   1.79775711E-02   1.53690260E-02
  0.171875000      0.109375000      -3.87668014E-02   2.27843635E-02   1.50773963E-02
  0.203125000      0.109375000      -5.20050526E-02   2.69840583E-02   1.47181023E-02
  0.234375000      0.109375000      -6.62091598E-02   3.04566529E-02   1.42876972E-02
  0.265625000      0.109375000      -8.09043944E-02   3.30523252E-02   1.37931081E-02
  0.296875000      0.109375000      -9.55989659E-02   3.46161127E-02   1.32533163E-02
  0.328125000      0.109375000     -0.109806061       3.50130945E-02   1.26996869E-02
  0.359375000      0.109375000     -0.123060495       3.41436714E-02   1.21747265E-02
  0.390625000      0.109375000     -0.134931043       3.19500789E-02   1.17296409E-02
  0.421875000      0.109375000     -0.145029485       2.84179859E-02   1.14200469E-02
  0.453125000      0.109375000     -0.153016850       2.35747807E-02   1.13011310E-02
  0.484375000      0.109375000     -0.158606946       1.74863040E-02   1.14209261E-02
  0.515625000      0.109375000     -0.161567390       1.02518816E-02   1.18146129E-02
  0.546875000      0.109375000     -0.161717713       1.99821079E-03   1.24979811E-02
  0.578125000      0.109375000     -0.158923030      -7.12985219E-03   1.34249050E-02
  0.609375000      0.109375000     -0.153153807      -1.68652851E-02   1.45622566E-02
  0.640625000      0.109375000     -0.144462094      -2.67251171E-02   1.58222187E-02
  0.671875000      0.109375000     -0.132932097      -3.61499637E-02   1.70863084E-02
  0.703125000      0.109375000     -0.118735164      -4.44408804E-02   1.82188340E-02
  0.734375000      0.109375000     -0.102168709      -5.07302657E-02   1.90870818E-02
  0.765625000      0.109375000      -8.37082416E-02  -5.39716631E-02   1.95895806E-02
  0.796875000      0.109375000      -6.40725195E-02  -5.29847667E-02   1.96892451E-02
  0.828125000      0.109375000      -4.43029068E-02  -4.66380566E-02   1.94400996E-02
  0.859375000      0.109375000      -2.58623622E-02  -3.43516767E-02   1.89870708E-02
  0.890625000      0.109375000      -1.07538886E-02  -1.72674023E-02   1.85153950E-02
  0.921875000      0.109375000      -1.26070075E-03   5.73192956E-05   1.81627572E-02
  0.953125000      0.109375000       1.72725529E-03   9.91563313E-03   1.79600939E-02
  0.984375000      0.109375000       8.27588025E-04   8.35280959E-03   1.79188084E-02
   1.56250000E-02  0.140625000      -1.54505123E-03   8.35742801E-04   1.63321532E-02
   4.68750000E-02  0.140625000      -6.73732953E-03   7.56465364E-03   1.61533710E-02
   7.81250000E-02  0.140625000      -1.53960828E-02   1.54892392E-02   1.59626752E-02
  0.109375000      0.140625000      -2.63977796E-02   2.32046396E-02   1.57337729E-02
  0.140625000      0.140625000      -3.91364433E-02   3.02456357E-02   1.54452361E-02
  0.171875000      0.140625000      -5.31987958E-02   3.64181176E-02   1.50779737E-02
  0.203125000      0.140625000      -6.81818277E-02   4.15710360E-02   1.46182813E-02
  0.234375000      0.140625000      -8.36497620E-02   4.55411971E-02   1.40621979E-02
  0.265625000      0.140625000      -9.91483480E-02   4.81611453E-02   1.34186763E-02
  0.296875000      0.140625000     -0.114229038       4.92821634E-02   1.27110872E-02
  0.328125000      0.140625000     -0.128468037       4.87928167E-02   1.19768959E-02
  0.359375000      0.140625000     -0.141478643       4.66287434E-02   1.12656867E-02
  0.390625000      0.140625000     -0.152918577       4.27753031E-02   1.06358705E-02
  0.421875000      0.140625000     -0.162493393       3.72658893E-02   1.01495711E-02
  0.453125000      0.140625000     -0.169956803       3.01775653E-02   9.86708794E-03
  0.484375000      0.140625000     -0.175108731       2.16254853E-02   9.83996782E-03
  0.515625000      0.140625000     -0.177791983       1.17563307E-02   1.01046897E-02
  0.546875000      0.140625000     -0.177889168       7.41182768E-04   1.06753837E-02
  0.578125000      0.140625000     -0.175323755      -1.12330699E-02   1.15254717E-02
  0.609375000      0.140625000     -0.170048505      -2.38067247E-02   1.26334131E-02
  0.640625000      0.140625000     -0.162030816      -3.64933014E-02   1.39164887E-02
  0.671875000      0.140625000     -0.151265144      -4.86777425E-02   1.52629633E-02
  0.703125000      0.140625000     -0.137799472      -5.95760718E-02   1.65408161E-02
  0.734375000      0.140625000     -0.121767886      -6.81935325E-02   1.76142789E-02
  0.765625000      0.140625000     -0.103438385      -7.32988268E-02   1.83678344E-02
  0.796875000      0.140625000      -8.32822844E-02  -7.34499171E-02   1.87356025E-02
  0.828125000      0.140625000      -6.20757490E-02  -6.71495646E-02   1.87288113E-02
  0.859375000      0.140625000      -4.10533249E-02  -5.33036292E-02   1.84455533E-02
  0.890625000      0.140625000      -2.21306980E-02  -3.23470347E-02   1.80442072E-02
  0.921875000      0.140625000      -7.99355842E-03  -8.49384628E-03   1.76725183E-02
  0.953125000      0.140625000      -9.59374651E-04   8.44420213E-03   1.74131133E-02
  0.984375000      0.140625000       2.91954319E-04   9.47219320E-03   1.73092764E-02
   1.56250000E-02  0.171875000      -2.43635848E-03   4.81685996E-03   1.65523179E-02
   4.68750000E-02  0.171875000      -9.85711440E-03   1.61959194E-02   1.63153298E-02
   7.81250000E-02  0.171875000      -2.11101063E-02   2.67690141E-02   1.60753373E-02
  0.109375000      0.171875000      -3.44057903E-02   3.62215750E-02   1.57792009E-02
  0.140625000      0.171875000      -4.89728190E-02   4.45337594E-02   1.53957661E-02
  0.171875000      0.171875000      -6.43788278E-02   5.15977740E-02   1.49035165E-02
  0.203125000      0.171875000      -8.02470148E-02   5.72420582E-02   1.42896604E-02
  0.234375000      0.171875000      -9.61909145E-02   6.12815246E-02   1.35533856E-02
  0.265625000      0.171875000     -0.111821771       6.35498539E-02   1.27085727E-02
  0.296875000      0.171875000     -0.126768023       6.39200658E-02   1.17850387E-02
  0.328125000      0.171875000     -0.140690058       6.23157099E-02   1.08273905E-02
  0.359375000      0.171875000     -0.153288081       5.87143302E-02   9.89239477E-03
  0.390625000      0.171875000     -0.164304495       5.31459674E-02   9.04500857E-03
  0.421875000      0.171875000     -0.173522294       4.56878170E-02   8.35269503E-03
  0.453125000      0.171875000     -0.180761009       3.64577919E-02   7.87954312E-03
  0.484375000      0.171875000     -0.185871273       2.56075151E-02   7.67948665E-03
  0.515625000      0.171875000     -0.188730285       1.33166183E-02   7.78971706E-03
  0.546875000      0.171875000     -0.189239979      -2.12189800E-04   8.22393037E-03
  0.578125000      0.171875000     -0.187329590      -1.47555303E-02   8.98270588E-03
  0.609375000      0.171875000     -0.182927549      -2.99616009E-02   1.00535192E-02
  0.640625000      0.171875000     -0.175948232      -4.53355201E-02   1.13640223E-02
  0.671875000      0.171875000     -0.166312248      -6.02373369E-02   1.28124459E-02
  0.703125000      0.171875000     -0.153957427      -7.38372058E-02   1.42733809E-02
  0.734375000      0.171875000     -0.138863087      -8.50586370E-02   1.56096369E-02
  0.765625000      0.171875000     -0.121095210      -9.25314426E-02   1.66907646E-02
  0.796875000      0.171875000     -0.100881889      -9.45871025E-02   1.74179971E-02
  0.828125000      0.171875000      -7.87344128E-02  -8.93668234E-02   1.77504495E-02
  0.859375000      0.171875000      -5.56434691E-02  -7.52001852E-02   1.77247133E-02
  0.890625000      0.171875000      -3.33921425E-02  -5.16248792E-02   1.74529087E-02
  0.921875000      0.171875000      -1.49212331E-02  -2.18244921E-02   1.70852486E-02
  0.953125000      0.171875000      -3.73269245E-03   3.55169224E-03   1.67465545E-02
  0.984375000      0.171875000      -1.91839485E-04   9.57215857E-03   1.65553745E-02
   1.56250000E-02  0.203125000      -3.14483675E-03   1.03977509E-02   1.66331865E-02
   4.68750000E-02  0.203125000      -1.22516127E-02   2.71418840E-02   1.63449943E-02
   7.81250000E-02  0.203125000      -2.53405478E-02   4.01642472E-02   1.60452891E-02
  0.109375000      0.203125000      -4.01442647E-02   5.09250611E-02   1.56580191E-02
  0.140625000      0.203125000      -5.57936840E-02   6.00460917E-02   1.51465833E-02
  0.171875000      0.203125000      -7.18656182E-02   6.75628260E-02   1.44908316E-02
  0.203125000      0.203125000      -8.80300850E-02   7.33091682E-02   1.36823673E-02
  0.234375000      0.203125000     -0.103966855       7.70946592E-02   1.27260713E-02
  0.265625000      0.203125000     -0.119364128       7.87645280E-02   1.16427690E-02
  0.296875000      0.203125000     -0.133931667       7.82189369E-02   1.04695344E-02
  0.328125000      0.203125000     -0.147410184       7.54172727E-02   9.25812311E-03
  0.359375000      0.203125000     -0.159574911       7.03754723E-02   8.07189103E-03
  0.390625000      0.203125000     -0.170234025       6.31603673E-02   6.98121730E-03
  0.421875000      0.203125000     -0.179224223       5.38815260E-02   6.05783658E-03
  0.453125000      0.203125000     -0.186405033       4.26837504E-02   5.36904112E-03
  0.484375000      0.203125000     -0.191653967       2.97409277E-02   4.97114006E-03
  0.515625000      0.203125000     -0.194864303       1.52527522E-02   4.90290066E-03
  0.546875000      0.203125000     -0.195946828      -5.55925595E-04   5.17971953E-03
  0.578125000      0.203125000     -0.194835901      -1.74329765E-02   5.82658453E-03
  0.609375000      0.203125000     -0.191457480      -3.50644961E-02   6.84569404E-03
  0.640625000      0.203125000     -0.185702920      -5.29664606E-02   8.17716215E-03
  0.671875000      0.203125000     -0.177436769      -7.05085546E-02   9.73154046E-03
  0.703125000      0.203125000     -0.166498721      -8.68589580E-02   1.13932453E-02
  0.734375000      0.203125000     -0.152721509     -0.100908615       1.30266659E-02
  0.765625000      0.203125000     -0.135974303     -0.111196779       1.44887455E-02
  0.796875000      0.203125000     -0.116243258     -0.115866423       1.56473592E-02
  0.828125000      0.203125000      -9.37684178E-02 -0.112710178       1.64053347E-02
  0.859375000      0.203125000      -6.92707747E-02  -9.94458199E-02   1.67272501E-02
  0.890625000      0.203125000      -4.43285257E-02  -7.45732337E-02   1.66608114E-02
  0.921875000      0.203125000      -2.19373591E-02  -3.97386290E-02   1.63391251E-02
  0.953125000      0.203125000      -6.56561973E-03  -5.09485463E-03   1.59373730E-02
  0.984375000      0.203125000      -6.34142023E-04   8.74604005E-03   1.56362057E-02
   1.56250000E-02  0.234375000      -3.58237256E-03   1.71246491E-02   1.64857395E-02
   4.68750000E-02  0.234375000      -1.37056606E-02   3.96443680E-02   1.61570050E-02
   7.81250000E-02  0.234375000      -2.78504640E-02   5.48947752E-02   1.57920029E-02
  0.109375000      0.234375000      -4.34445962E-02   6.65917099E-02   1.52987819E-02
  0.140625000      0.234375000      -5.95533252E-02   7.61369914E-02   1.46392211E-02
  0.171875000      0.234375000      -7.57670030E-02   8.37570205E-02   1.37972981E-02
  0.203125000      0.234375000      -9.18028057E-02   8.93148184E-02   1.27707124E-02
  0.234375000      0.234375000     -0.107404433       9.26270634E-02   1.15717733E-02
  0.265625000      0.234375000     -0.122330844       9.35555845E-02   1.02288872E-02
  0.296875000      0.234375000     -0.136362374       9.20268297E-02   8.78651906E-03
  0.328125000      0.234375000     -0.149305165       8.80307034E-02   7.30302930E-03
  0.359375000      0.234375000     -0.160991460       8.16131234E-02   5.84767200E-03
  0.390625000      0.234375000     -0.171276271       7.28667527E-02   4.49557556E-03
  0.421875000      0.234375000     -0.180032775       6.19220845E-02   3.32235591E-03
  0.453125000      0.234375000     -0.187148690       4.89402041E-02   2.39862874E-03
  0.484375000      0.234375000     -0.192524105       3.41091231E-02   1.78369507E-03
  0.515625000      0.234375000     -0.196072161       1.76433064E-02   1.51949935E-03
  0.546875000      0.234375000     -0.197722584      -2.13219348E-04   1.62486848E-03
  0.578125000      0.234375000     -0.197427481      -1.91814397E-02   2.13986356E-03
  0.609375000      0.234375000     -0.195129007      -3.89926806E-02   3.08876624E-03
  0.640625000      0.234375000     -0.190716714      -5.92049435E-02   4.42404766E-03
  0.671875000      0.234375000     -0.184015542      -7.92372748E-02   6.07087463E-03
  0.703125000      0.234375000     -0.174780339      -9.83034670E-02   7.92658702E-03
  0.734375000      0.234375000     -0.162707627     -0.115314052       9.86197405E-03
  0.765625000      0.234375000     -0.147476897     -0.128769428       1.17265079E-02
  0.796875000      0.234375000     -0.128834412     -0.136667520       1.33589637E-02
  0.828125000      0.234375000     -0.106741101     -0.136477485       1.46074928E-02
  0.859375000      0.234375000      -8.16207826E-02 -0.125296816       1.53591093E-02
  0.890625000      0.234375000      -5.47769517E-02 -0.100508697       1.55811608E-02
  0.921875000      0.234375000      -2.90820375E-02  -6.18896335E-02   1.53629789E-02
  0.953125000      0.234375000      -9.68306977E-03  -1.77149307E-02   1.49134016E-02
  0.984375000      0.234375000      -1.18025602E-03   6.93151774E-03   1.45006701E-02
   1.56250000E-02  0.265625000      -3.72722070E-03   2.44339332E-02   1.60469860E-02
   4.68750000E-02  0.265625000      -1.41958371E-02   5.29263057E-02   1.56904776E-02
   7.81250000E-02  0.265625000      -2.86794566E-02   7.02405572E-02   1.52604859E-02
  0.109375000      0.265625000      -4.44403440E-02   8.26003104E-02   1.46566741E-02
  0.140625000      0.265625000      -6.04883023E-02   9.22845155E-02   1.38426181E-02
  0.171875000      0.265625000      -7.64197707E-02   9.97541696E-02   1.28074139E-02
  0.203125000      0.265625000      -9.19899121E-02  0.104923241       1.15558328E-02
  0.234375000      0.265625000     -0.106994987      0.107625097       1.01078358E-02
  0.265625000      0.265625000     -0.121250749      0.107739583       8.49939138E-03
  0.296875000      0.265625000     -0.134592012      0.105215609       6.78198272E-03
  0.328125000      0.265625000     -0.146873474      0.100066304       5.02033252E-03
  0.359375000      0.265625000     -0.157968268       9.23587978E-02   3.28891841E-03
  0.390625000      0.265625000     -0.167765394       8.22032839E-02   1.66752003E-03
  0.421875000      0.265625000     -0.176167578       6.97446316E-02   2.35729589E-04
  0.453125000      0.265625000     -0.183090538       5.51569313E-02  -9.32020426E-04
  0.484375000      0.265625000     -0.188463897       3.86416130E-02  -1.77277322E-03
  0.515625000      0.265625000     -0.192233250       2.04286948E-02  -2.24015466E-03
  0.546875000      0.265625000     -0.194361687       7.80683476E-04  -2.31068232E-03
  0.578125000      0.265625000     -0.194830388      -2.00013407E-02  -1.94164249E-03
  0.609375000      0.265625000     -0.193610579      -4.16907147E-02  -1.08253956E-03
  0.640625000      0.265625000     -0.190607935      -6.39215112E-02   2.31209910E-04
  0.671875000      0.265625000     -0.185625285      -8.62042755E-02   1.94016472E-03
  0.703125000      0.265625000     -0.178348571     -0.107848212       3.95809021E-03
  0.734375000      0.265625000     -0.168352038     -0.127838448       6.16803905E-03
  0.765625000      0.265625000     -0.155135453     -0.144692391       8.41982476E-03
  0.796875000      0.265625000     -0.138208568     -0.156314045       1.05325188E-02
  0.828125000      0.265625000     -0.117245585     -0.159887418       1.23061538E-02
  0.859375000      0.265625000      -9.23481882E-02 -0.151904881       1.35513507E-02
  0.890625000      0.265625000      -6.44902959E-02 -0.128602684       1.41432900E-02
  0.921875000      0.265625000      -3.62872295E-02  -8.76939744E-02   1.41017493E-02
  0.953125000      0.265625000      -1.31507590E-02  -3.44463661E-02   1.36468038E-02
  0.984375000      0.265625000      -1.87102531E-03   3.88012500E-03   1.31192906E-02
   1.56250000E-02  0.296875000      -3.60067398E-03   3.17615345E-02   1.52911637E-02
   4.68750000E-02  0.296875000      -1.38084749E-02   6.62744716E-02   1.49204116E-02
   7.81250000E-02  0.296875000      -2.80050598E-02   8.55719149E-02   1.44309364E-02
  0.109375000      0.296875000      -4.34005894E-02   9.84247476E-02   1.37208048E-02
  0.140625000      0.296875000      -5.89496568E-02  0.108056560       1.27572250E-02
  0.171875000      0.296875000      -7.42422566E-02  0.115205772       1.15349293E-02
  0.203125000      0.296875000      -8.90586376E-02  0.119857877       1.00654820E-02
  0.234375000      0.296875000     -0.103233621      0.121870376       8.37599486E-03
  0.265625000      0.296875000     -0.116624415      0.121140838       6.50966819E-03
  0.296875000      0.296875000     -0.129104719      0.117636025       4.52448986E-03
  0.328125000      0.296875000     -0.140563339      0.111386180       2.49121618E-03
  0.359375000      0.296875000     -0.150902927      0.102473609       4.89497848E-04
  0.390625000      0.296875000     -0.160039529       9.10226405E-02  -1.39632111E-03
  0.421875000      0.296875000     -0.167903990       7.71924406E-02  -3.08215083E-03
  0.453125000      0.296875000     -0.174444646       6.11732602E-02  -4.48960904E-03
  0.484375000      0.296875000     -0.179630220       4.31847721E-02  -5.55139640E-03
  0.515625000      0.296875000     -0.183450699       2.34759562E-02  -6.21680589E-03
  0.546875000      0.296875000     -0.185914814       2.32652086E-03  -6.45679142E-03
  0.578125000      0.296875000     -0.187043279      -1.99494883E-02  -6.23845868E-03
  0.609375000      0.296875000     -0.186847389      -4.31578159E-02  -5.48552955E-03
  0.640625000      0.296875000     -0.185264677      -6.70393333E-02  -4.22344403E-03
  0.671875000      0.296875000     -0.182095379      -9.12380517E-02  -2.49561993E-03
  0.703125000      0.296875000     -0.176976889     -0.115209386      -3.69025627E-04
  0.734375000      0.296875000     -0.169379607     -0.138070911       2.05773022E-03
  0.765625000      0.296875000     -0.158637315     -0.158418700       4.64488287E-03
  0.796875000      0.296875000     -0.144028664     -0.174123257       7.20419036E-03
  0.828125000      0.296875000     -0.124934427     -0.182135522       9.50035453E-03
  0.859375000      0.296875000     -0.101110041     -0.178378746       1.12744803E-02
  0.890625000      0.296875000      -7.31503516E-02 -0.157946631       1.23044206E-02
  0.921875000      0.296875000      -4.33102772E-02 -0.116393432       1.25154741E-02
  0.953125000      0.296875000      -1.69524048E-02  -5.52415363E-02   1.21036358E-02
  0.984375000      0.296875000      -2.78304028E-03  -7.74034183E-04   1.14749111E-02
   1.56250000E-02  0.328125000      -3.24639492E-03   3.86083350E-02   1.42311137E-02
   4.68750000E-02  0.328125000      -1.26818847E-02   7.90703744E-02   1.38590960E-02
   7.81250000E-02  0.328125000      -2.60620788E-02  0.100352183       1.33193005E-02
  0.109375000      0.328125000      -4.06440198E-02  0.113621399       1.25136208E-02
  0.140625000      0.328125000      -5.53246997E-02  0.123089209       1.14140715E-02
  0.171875000      0.328125000      -6.96737915E-02  0.129814506       1.00209191E-02
  0.203125000      0.328125000      -8.34834874E-02  0.133875012       8.35166872E-03
  0.234375000      0.328125000      -9.66140330E-02  0.135158718       6.43990654E-03
  0.265625000      0.328125000     -0.108950958      0.133580327       4.33519855E-03
  0.296875000      0.328125000     -0.120394565      0.129120678       2.10184744E-03
  0.328125000      0.328125000     -0.130857229      0.121823132      -1.83859345E-04
  0.359375000      0.328125000     -0.140263498      0.111782953      -2.43693194E-03
  0.390625000      0.328125000     -0.148552611       9.91395563E-02  -4.56814840E-03
  0.421875000      0.328125000     -0.155683339       8.40712935E-02  -6.48907572E-03
  0.453125000      0.328125000     -0.161639780       6.67921454E-02  -8.11715703E-03
  0.484375000      0.328125000     -0.166435689       4.75480109E-02  -9.38127376E-03
  0.515625000      0.328125000     -0.170113802       2.66119856E-02  -1.02267191E-02
  0.546875000      0.328125000     -0.172737896       4.27934993E-03  -1.06196273E-02
  0.578125000      0.328125000     -0.174377352      -1.91337988E-02  -1.05445134E-02
  0.609375000      0.328125000     -0.175093487      -4.34527472E-02  -9.90767963E-03
  0.640625000      0.328125000     -0.174871445      -6.85486794E-02  -8.72646458E-03
  0.671875000      0.328125000     -0.173531130      -9.42378938E-02  -7.02957157E-03
  0.703125000      0.328125000     -0.170686722     -0.120172083      -4.86299302E-03
  0.734375000      0.328125000     -0.165729672     -0.145662248      -2.30119540E-03
  0.765625000      0.328125000     -0.157847255     -0.169451892       5.36936859E-04
  0.796875000      0.328125000     -0.146096423     -0.189449400       3.47035122E-03
  0.828125000      0.328125000     -0.129559934     -0.202440098       6.24572579E-03