 VARIABLES="X","Y","U","V","P"
 ZONE F=POINT, I=          64 , J=          64
   7.81250000E-03   7.81250000E-03   5.38128734E-05  -5.50170880E-05   2.47947611E-02
   2.34375000E-02   7.81250000E-03   2.74645485E-04  -1.68264451E-04   2.48100627E-02
   3.90625000E-02   7.81250000E-03   6.56593067E-04  -2.16132248E-04   2.47975215E-02
   5.46875000E-02   7.81250000E-03   1.08059612E-03  -2.10148457E-04   2.47478392E-02
   7.03125000E-02   7.81250000E-03   1.46024744E-03  -1.71473599E-04   2.46616770E-02
   8.59375000E-02   7.81250000E-03   1.74693624E-03  -1.16782874E-04   2.45436411E-02
  0.101562500       7.81250000E-03   1.91934174E-03  -5.67054994E-05   2.43989844E-02
  0.117187500       7.81250000E-03   1.97247881E-03   3.04071455E-06   2.42320485E-02
  0.132812500       7.81250000E-03   1.90931442E-03   6.01836509E-05   2.40458157E-02
  0.148437500       7.81250000E-03   1.73567422E-03   1.14115050E-04   2.38419585E-02
  0.164062500       7.81250000E-03   1.45632424E-03   1.66501617E-04   2.36208960E-02
  0.179687500       7.81250000E-03   1.07344682E-03   2.18237547E-04   2.33825520E-02
  0.195312500       7.81250000E-03   5.85789210E-04   2.71850353E-04   2.31264271E-02
  0.210937500       7.81250000E-03  -1.10574911E-05   3.27950693E-04   2.28528529E-02
  0.226562500       7.81250000E-03  -7.22557248E-04   3.86973697E-04   2.25620978E-02
  0.242187500       7.81250000E-03  -1.55506213E-03   4.49349405E-04   2.22557690E-02
  0.257812500       7.81250000E-03  -2.51490087E-03   5.14623593E-04   2.19361782E-02
  0.273437500       7.81250000E-03  -3.60702211E-03   5.81841043E-04   2.16067135E-02
  0.289062500       7.81250000E-03  -4.83419280E-03   6.49769616E-04   2.12719142E-02
  0.304687500       7.81250000E-03  -6.19643368E-03   7.16909708E-04   2.09374800E-02
  0.320312500       7.81250000E-03  -7.69061409E-03   7.81594892E-04   2.06102710E-02
  0.335937500       7.81250000E-03  -9.31009930E-03   8.42010428E-04   2.02982798E-02
  0.351562500       7.81250000E-03  -1.10444920E-02   8.96225625E-04   2.00105458E-02
  0.367187500       7.81250000E-03  -1.28794489E-02   9.42236104E-04   1.97570100E-02
  0.382812500       7.81250000E-03  -1.47965644E-02   9.78010939E-04   1.95483416E-02
  0.398437500       7.81250000E-03  -1.67733505E-02   1.00153289E-03   1.93956662E-02
  0.414062500       7.81250000E-03  -1.87833179E-02   1.01083890E-03   1.93102621E-02
  0.429687500       7.81250000E-03  -2.07961462E-02   1.00407540E-03   1.93031989E-02
  0.445312500       7.81250000E-03  -2.27779374E-02   9.79527249E-04   1.93849020E-02
  0.460937500       7.81250000E-03  -2.46915482E-02   9.35663411E-04   1.95647050E-02
  0.476562500       7.81250000E-03  -2.64969841E-02   8.71153898E-04   1.98503472E-02
  0.492187500       7.81250000E-03  -2.81518176E-02   7.84894277E-04   2.02474371E-02
  0.507812500       7.81250000E-03  -2.96116658E-02   6.76020747E-04   2.07588896E-02
  0.523437500       7.81250000E-03  -3.08307633E-02   5.43992326E-04   2.13843025E-02
  0.539062500       7.81250000E-03  -3.17629315E-02   3.88905464E-04   2.21192706E-02
  0.554687500       7.81250000E-03  -3.23638543E-02   2.12513813E-04   2.29545850E-02
  0.570312500       7.81250000E-03  -3.25967893E-02   2.06880595E-05   2.38754302E-02
  0.585937500       7.81250000E-03  -3.24371830E-02  -1.80290910E-04   2.48540733E-02
  0.601562500       7.81250000E-03  -3.18534002E-02  -4.03822516E-04   2.58638617E-02
  0.617187500       7.81250000E-03  -3.08082812E-02  -6.42016064E-04   2.68801730E-02
  0.632812500       7.81250000E-03  -2.92822402E-02  -8.85202317E-04   2.78733466E-02
  0.648437500       7.81250000E-03  -2.72752792E-02  -1.12345873E-03   2.88109090E-02
  0.664062500       7.81250000E-03  -2.48078126E-02  -1.34628522E-03   2.96594165E-02
  0.679687500       7.81250000E-03  -2.19219588E-02  -1.54247589E-03   3.03864982E-02
  0.695312500       7.81250000E-03  -1.86826922E-02  -1.70035718E-03   3.09631228E-02
  0.710937500       7.81250000E-03  -1.51782148E-02  -1.80834462E-03   3.13660316E-02
  0.726562500       7.81250000E-03  -1.15189683E-02  -1.85576850E-03   3.15801464E-02
  0.742187500       7.81250000E-03  -7.83473812E-03  -1.83392910E-03   3.16006280E-02
  0.757812500       7.81250000E-03  -4.26977780E-03  -1.73705874E-03   3.14342938E-02
  0.773437500       7.81250000E-03  -9.77012212E-04  -1.56218430E-03   3.11000757E-02
  0.789062500       7.81250000E-03   1.88355008E-03  -1.30514440E-03   3.06334756E-02
  0.804687500       7.81250000E-03   4.18080809E-03  -9.99053242E-04   3.00767329E-02
  0.820312500       7.81250000E-03   5.84688922E-03  -6.74028415E-04   2.94716731E-02
  0.835937500       7.81250000E-03   6.86858874E-03  -3.54561460E-04   2.88596824E-02
  0.851562500       7.81250000E-03   7.28258770E-03  -6.60815276E-05   2.82777771E-02
  0.867187500       7.81250000E-03   7.16965739E-03   1.72761793E-04   2.77546197E-02
  0.882812500       7.81250000E-03   6.63414784E-03   3.57025623E-04   2.73091607E-02
  0.898437500       7.81250000E-03   5.78309596E-03   4.88862570E-04   2.69490555E-02
  0.914062500       7.81250000E-03   4.71783523E-03   5.71769313E-04   2.66759023E-02
  0.929687500       7.81250000E-03   3.53542413E-03   6.06492162E-04   2.64875963E-02
  0.945312500       7.81250000E-03   2.33820803E-03   5.86995739E-04   2.63797827E-02
  0.960937500       7.81250000E-03   1.25063688E-03   4.97219095E-04   2.63454113E-02
  0.976562500       7.81250000E-03   4.34379093E-04   3.16008955E-04   2.63704229E-02
  0.992187500       7.81250000E-03   5.84656118E-05   5.74358091E-05   2.64231712E-02
   7.81250000E-03   2.34375000E-02   1.67522056E-04  -2.78527092E-04   2.47797463E-02
   2.34375000E-02   2.34375000E-02   6.83102873E-04  -6.85416919E-04   2.47948747E-02
   3.90625000E-02   2.34375000E-02   1.43955660E-03  -8.41362285E-04   2.47790907E-02
   5.46875000E-02   2.34375000E-02   2.22349819E-03  -7.96456821E-04   2.47301534E-02
   7.03125000E-02   2.34375000E-02   2.87853554E-03  -6.22938562E-04   2.46493351E-02
   8.59375000E-02   2.34375000E-02   3.30432318E-03  -3.80232406E-04   2.45401300E-02
  0.101562500       2.34375000E-02   3.44512332E-03  -1.08125976E-04   2.44065579E-02
  0.117187500       2.34375000E-02   3.27565800E-03   1.70012281E-04   2.42519863E-02
  0.132812500       2.34375000E-02   2.78907106E-03   4.43146098E-04   2.40787230E-02
  0.148437500       2.34375000E-02   1.98827474E-03   7.06780353E-04   2.38881540E-02
  0.164062500       2.34375000E-02   8.76641425E-04   9.67059284E-04   2.36804448E-02
  0.179687500       2.34375000E-02  -5.45221905E-04   1.22569012E-03   2.34557334E-02
  0.195312500       2.34375000E-02  -2.27770209E-03   1.48881809E-03   2.32129451E-02
  0.210937500       2.34375000E-02  -4.32533864E-03   1.76073308E-03   2.29527969E-02
  0.226562500       2.34375000E-02  -6.69609010E-03   2.04261672E-03   2.26756539E-02
  0.242187500       2.34375000E-02  -9.39674489E-03   2.33384594E-03   2.23827586E-02
  0.257812500       2.34375000E-02  -1.24302385E-02   2.63110269E-03   2.20762100E-02
  0.273437500       2.34375000E-02  -1.57938208E-02   2.92921579E-03   2.17591189E-02
  0.289062500       2.34375000E-02  -1.94775574E-02   3.22176144E-03   2.14356482E-02
  0.304687500       2.34375000E-02  -2.34632902E-02   3.50145693E-03   2.11111289E-02
  0.320312500       2.34375000E-02  -2.77240314E-02   3.76044121E-03   2.07920261E-02
  0.335937500       2.34375000E-02  -3.22237462E-02   3.99054494E-03   2.04859525E-02
  0.351562500       2.34375000E-02  -3.69174480E-02   4.18349868E-03   2.02015899E-02
  0.367187500       2.34375000E-02  -4.17515561E-02   4.33114264E-03   1.99485756E-02
  0.382812500       2.34375000E-02  -4.66645397E-02   4.42564161E-03   1.97373219E-02
  0.398437500       2.34375000E-02  -5.15877977E-02   4.45965677E-03   1.95787679E-02
  0.414062500       2.34375000E-02  -5.64466715E-02   4.42653755E-03   1.94840785E-02
  0.429687500       2.34375000E-02  -6.11616336E-02   4.32045665E-03   1.94642805E-02
  0.445312500       2.34375000E-02  -6.56495839E-02   4.13652975E-03   1.95298456E-02
  0.460937500       2.34375000E-02  -6.98251575E-02   3.87091399E-03   1.96902212E-02
  0.476562500       2.34375000E-02  -7.36021325E-02   3.52087198E-03   1.99533477E-02
  0.492187500       2.34375000E-02  -7.68948197E-02   3.08481860E-03   2.03250963E-02
  0.507812500       2.34375000E-02  -7.96196014E-02   2.56245164E-03   2.08087601E-02
  0.523437500       2.34375000E-02  -8.16966593E-02   1.95504655E-03   2.14044582E-02
  0.539062500       2.34375000E-02  -8.30521882E-02   1.26643991E-03   2.21086182E-02
  0.554687500       2.34375000E-02  -8.36219415E-02   5.06071898E-04   2.29134113E-02
  0.570312500       2.34375000E-02  -8.33616108E-02  -3.00341373E-04   2.38044523E-02
  0.585937500       2.34375000E-02  -8.22068304E-02  -1.17428566E-03   2.47428268E-02
  0.601562500       2.34375000E-02  -8.00918639E-02  -2.10988009E-03   2.57152729E-02
  0.617187500       2.34375000E-02  -7.69965723E-02  -3.07844486E-03   2.66953968E-02
  0.632812500       2.34375000E-02  -7.29269385E-02  -4.04740125E-03   2.76538450E-02
  0.648437500       2.34375000E-02  -6.79167286E-02  -4.98236343E-03   2.85589918E-02
  0.664062500       2.34375000E-02  -6.20297417E-02  -5.84681239E-03   2.93784272E-02
  0.679687500       2.34375000E-02  -5.53615727E-02  -6.60206005E-03   3.00808679E-02
  0.695312500       2.34375000E-02  -4.80408445E-02  -7.20800227E-03   3.06383912E-02
  0.710937500       2.34375000E-02  -4.02297713E-02  -7.62462616E-03   3.10288351E-02
  0.726562500       2.34375000E-02  -3.21235843E-02  -7.81439245E-03   3.12381573E-02
  0.742187500       2.34375000E-02  -2.39482336E-02  -7.74537353E-03   3.12624648E-02
  0.757812500       2.34375000E-02  -1.59554593E-02  -7.39471102E-03   3.11094262E-02
  0.773437500       2.34375000E-02  -8.41401704E-03  -6.75078435E-03   3.07985637E-02
  0.789062500       2.34375000E-02  -1.59415707E-03  -5.80947055E-03   3.03602144E-02
  0.804687500       2.34375000E-02   4.20698011E-03  -4.60577663E-03   2.98478343E-02
  0.820312500       2.34375000E-02   8.74769688E-03  -3.28671047E-03   2.92925090E-02
  0.835937500       2.34375000E-02   1.19314063E-02  -1.95969851E-03   2.87306737E-02
  0.851562500       2.34375000E-02   1.37659973E-02  -7.21492746E-04   2.81977504E-02
  0.867187500       2.34375000E-02   1.43510737E-02   3.44675587E-04   2.77201924E-02
  0.882812500       2.34375000E-02   1.38670057E-02   1.19414134E-03   2.73140278E-02
  0.898437500       2.34375000E-02   1.25340438E-02   1.82620436E-03   2.69857589E-02
  0.914062500       2.34375000E-02   1.05784349E-02   2.24669441E-03   2.67356914E-02
  0.929687500       2.34375000E-02   8.23142380E-03   2.45320401E-03   2.65605599E-02
  0.945312500       2.34375000E-02   5.73880272E-03   2.42301403E-03   2.64550224E-02
  0.960937500       2.34375000E-02   3.37601663E-03   2.10499065E-03   2.64122691E-02
  0.976562500       2.34375000E-02   1.45830074E-03   1.43605331E-03   2.64233220E-02
  0.992187500       2.34375000E-02   3.26355279E-04   4.39929077E-04   2.64759958E-02
   7.81250000E-03   3.90625000E-02   2.19046851E-04  -6.66731969E-04   2.47925576E-02
   2.34375000E-02   3.90625000E-02   8.48021358E-04  -1.44481449E-03   2.48097554E-02
   3.90625000E-02   3.90625000E-02   1.69902248E-03  -1.69202895E-03   2.47924812E-02
   5.46875000E-02   3.90625000E-02   2.50101252E-03  -1.53394684E-03   2.47430485E-02
   7.03125000E-02   3.90625000E-02   3.06698121E-03  -1.10831205E-03   2.46644877E-02
   8.59375000E-02   3.90625000E-02   3.27303982E-03  -5.28129051E-04   2.45606042E-02
  0.101562500       3.90625000E-02   3.04127624E-03   1.29819775E-04   2.44350526E-02
  0.117187500       3.90625000E-02   2.33049691E-03   8.11982900E-04   2.42904685E-02
  0.132812500       3.90625000E-02   1.12370402E-03   1.49489124E-03   2.41285618E-02
  0.148437500       3.90625000E-02  -5.83861140E-04   2.16446072E-03   2.39507444E-02
  0.164062500       3.90625000E-02  -2.78691435E-03   2.82590743E-03   2.37555001E-02
  0.179687500       3.90625000E-02  -5.48114767E-03   3.48557089E-03   2.35431138E-02
  0.195312500       3.90625000E-02  -8.66780058E-03   4.15152265E-03   2.33127661E-02
  0.210937500       3.90625000E-02  -1.23479143E-02   4.83007496E-03   2.30642632E-02
  0.226562500       3.90625000E-02  -1.65195800E-02   5.52081037E-03   2.27977894E-02
  0.242187500       3.90625000E-02  -2.11753584E-02   6.21798635E-03   2.25142371E-02
  0.257812500       3.90625000E-02  -2.62993965E-02   6.91108964E-03   2.22153440E-02
  0.273437500       3.90625000E-02  -3.18655185E-02   7.58610899E-03   2.19038315E-02
  0.289062500       3.90625000E-02  -3.78360227E-02   8.22672900E-03   2.15835143E-02
  0.304687500       3.90625000E-02  -4.41612676E-02   8.81535280E-03   2.12593488E-02
  0.320312500       3.90625000E-02  -5.07799014E-02   9.33387782E-03   2.09375247E-02
  0.335937500       3.90625000E-02  -5.76195866E-02   9.76435002E-03   2.06254274E-02
  0.351562500       3.90625000E-02  -6.45982027E-02   1.00895297E-02   2.03316212E-02
  0.367187500       3.90625000E-02  -7.16252774E-02   1.02933459E-02   2.00657211E-02
  0.382812500       3.90625000E-02  -7.86037296E-02   1.03613241E-02   1.98382232E-02
  0.398437500       3.90625000E-02  -8.54316503E-02   1.02809053E-02   1.96602717E-02
  0.414062500       3.90625000E-02  -9.20042098E-02   1.00416951E-02   1.95433218E-02
  0.429687500       3.90625000E-02  -9.82154086E-02   9.63566080E-03   1.94987841E-02
  0.445312500       3.90625000E-02 -0.103959940       9.05722193E-03   1.95375849E-02
  0.460937500       3.90625000E-02 -0.109134778       8.30333959E-03   1.96696986E-02
  0.476562500       3.90625000E-02 -0.113640785       7.37351319E-03   1.99036095E-02
  0.492187500       3.90625000E-02 -0.117384255       6.26986427E-03   2.02458166E-02
  0.507812500       3.90625000E-02 -0.120278418       4.99735912E-03   2.07002889E-02
  0.523437500       3.90625000E-02 -0.122244984       3.56428418E-03   2.12680139E-02
  0.539062500       3.90625000E-02 -0.123215467       1.98328611E-03   2.19467599E-02
  0.554687500       3.90625000E-02 -0.123129547       2.72744510E-04   2.27319282E-02
  0.570312500       3.90625000E-02 -0.121916115      -1.54150999E-03   2.35855691E-02
  0.585937500       3.90625000E-02 -0.119522944      -3.48234386E-03   2.44983621E-02
  0.601562500       3.90625000E-02 -0.115940109      -5.50150219E-03   2.54485644E-02
  0.617187500       3.90625000E-02 -0.111179039      -7.54573662E-03   2.64099669E-02
  0.632812500       3.90625000E-02 -0.105274588      -9.55747627E-03   2.73531731E-02
  0.648437500       3.90625000E-02  -9.82858837E-02  -1.14752715E-02   2.82466281E-02
  0.664062500       3.90625000E-02  -9.02980044E-02  -1.32336402E-02   2.90580336E-02
  0.679687500       3.90625000E-02  -8.14238042E-02  -1.47632947E-02   2.97561921E-02
  0.695312500       3.90625000E-02  -7.18056187E-02  -1.59922205E-02   3.03132012E-02
  0.710937500       3.90625000E-02  -6.16167188E-02  -1.68477744E-02   3.07068210E-02
  0.726562500       3.90625000E-02  -5.10622077E-02  -1.72601398E-02   3.09228804E-02
  0.742187500       3.90625000E-02  -4.03789021E-02  -1.71672031E-02   3.09573524E-02
  0.757812500       3.90625000E-02  -2.98333615E-02  -1.65207125E-02   3.08178701E-02
  0.773437500       3.90625000E-02  -1.97165199E-02  -1.52930412E-02   3.05242520E-02
  0.789062500       3.90625000E-02  -1.03318598E-02  -1.34820230E-02   3.01077571E-02
  0.804687500       3.90625000E-02  -1.96825201E-03  -1.11083295E-02   2.96089910E-02
  0.820312500       3.90625000E-02   5.03357965E-03  -8.33689421E-03   2.90836431E-02
  0.835937500       3.90625000E-02   1.03808250E-02  -5.45043126E-03   2.85532959E-02
  0.851562500       3.90625000E-02   1.39753893E-02  -2.66960612E-03   2.80518886E-02
  0.867187500       3.90625000E-02   1.58564188E-02  -1.82618329E-04   2.76074503E-02
  0.882812500       3.90625000E-02   1.61842518E-02   1.86883751E-03   2.72347983E-02
  0.898437500       3.90625000E-02   1.52191147E-02   3.44141386E-03   2.69366875E-02
  0.914062500       3.90625000E-02   1.32622989E-02   4.53642802E-03   2.67113615E-02
  0.929687500       3.90625000E-02   1.06257601E-02   5.14012109E-03   2.65538301E-02
  0.945312500       3.90625000E-02   7.64100999E-03   5.20698074E-03   2.64578741E-02
  0.960937500       3.90625000E-02   4.67122579E-03   4.64734994E-03   2.64178980E-02
  0.976562500       3.90625000E-02   2.12883274E-03   3.34764435E-03   2.64305510E-02
  0.992187500       3.90625000E-02   5.09877515E-04   1.27358944E-03   2.64969282E-02
   7.81250000E-03   5.46875000E-02   2.15339125E-04  -1.10223866E-03   2.48440672E-02
   2.34375000E-02   5.46875000E-02   7.99252361E-04  -2.22433126E-03   2.48580258E-02
   3.90625000E-02   5.46875000E-02   1.51139591E-03  -2.47757649E-03   2.48366520E-02
   5.46875000E-02   5.46875000E-02   2.05525709E-03  -2.09592679E-03   2.47842595E-02
   7.03125000E-02   5.46875000E-02   2.23262166E-03  -1.29104406E-03   2.47052237E-02
   8.59375000E-02   5.46875000E-02   1.90982199E-03  -2.29677840E-04   2.46039946E-02
  0.101562500       5.46875000E-02   1.00020273E-03   9.72157635E-04   2.44833697E-02
  0.117187500       5.46875000E-02  -5.42405352E-04   2.22294219E-03   2.43468527E-02
  0.132812500       5.46875000E-02  -2.73184828E-03   3.48064490E-03   2.41945386E-02
  0.148437500       5.46875000E-02  -5.56894578E-03   4.72443085E-03   2.40266901E-02
  0.164062500       5.46875000E-02  -9.05226916E-03   5.95398154E-03   2.38421224E-02
  0.179687500       5.46875000E-02  -1.31768193E-02   7.17863068E-03   2.36397777E-02
  0.195312500       5.46875000E-02  -1.79341193E-02   8.40547867E-03   2.34184135E-02
  0.210937500       5.46875000E-02  -2.33102571E-02   9.63615812E-03   2.31771581E-02
  0.226562500       5.46875000E-02  -2.92828865E-02   1.08635454E-02   2.29156502E-02
  0.242187500       5.46875000E-02  -3.58189940E-02   1.20723816E-02   2.26342715E-02
  0.257812500       5.46875000E-02  -4.28731963E-02   1.32408589E-02   2.23343000E-02
  0.273437500       5.46875000E-02  -5.03869876E-02   1.43427644E-02   2.20180620E-02
  0.289062500       5.46875000E-02  -5.82889058E-02   1.53494906E-02   2.16890443E-02
  0.304687500       5.46875000E-02  -6.64954334E-02   1.62316859E-02   2.13520154E-02
  0.320312500       5.46875000E-02  -7.49124587E-02   1.69606544E-02   2.10130736E-02
  0.335937500       5.46875000E-02  -8.34371746E-02   1.75093710E-02   2.06796918E-02
  0.351562500       5.46875000E-02  -9.19601917E-02   1.78532824E-02   2.03606375E-02
  0.367187500       5.46875000E-02 -0.100367799       1.79709829E-02   2.00658962E-02
  0.382812500       5.46875000E-02 -0.108544171       1.78446285E-02   1.98064558E-02
  0.398437500       5.46875000E-02 -0.116373494       1.74602550E-02   1.95940416E-02
  0.414062500       5.46875000E-02 -0.123741932       1.68079380E-02   1.94407981E-02
  0.429687500       5.46875000E-02 -0.130539358       1.58818346E-02   1.93588510E-02
  0.445312500       5.46875000E-02 -0.136660933       1.46801220E-02   1.93598866E-02
  0.460937500       5.46875000E-02 -0.142008275       1.32048782E-02   1.94545947E-02
  0.476562500       5.46875000E-02 -0.146490648       1.14619453E-02   1.96522046E-02
  0.492187500       5.46875000E-02 -0.150025547       9.46085900E-03   1.99599247E-02
  0.507812500       5.46875000E-02 -0.152539343       7.21491082E-03   2.03824323E-02
  0.523437500       5.46875000E-02 -0.153967410       4.74157650E-03   2.09214110E-02
  0.539062500       5.46875000E-02 -0.154254571       2.06355075E-03   2.15749610E-02
  0.554687500       5.46875000E-02 -0.153359219      -7.89074751E-04   2.23357733E-02
  0.570312500       5.46875000E-02 -0.151233375      -3.81952897E-03   2.31616274E-02
  0.585937500       5.46875000E-02 -0.147852346      -6.97953533E-03   2.40554754E-02
  0.601562500       5.46875000E-02 -0.143236205      -1.02047585E-02   2.49929801E-02
  0.617187500       5.46875000E-02 -0.137417644      -1.34240650E-02   2.59473007E-02
  0.632812500       5.46875000E-02 -0.130443305      -1.65604204E-02   2.68887654E-02
  0.648437500       5.46875000E-02 -0.122376673      -1.95307378E-02   2.77856346E-02
  0.664062500       5.46875000E-02 -0.113300666      -2.22457182E-02   2.86053978E-02
  0.679687500       5.46875000E-02 -0.103320278      -2.46101115E-02   2.93165185E-02
  0.695312500       5.46875000E-02  -9.25650299E-02  -2.65238080E-02   2.98905969E-02
  0.710937500       5.46875000E-02  -8.11914802E-02  -2.78842747E-02   3.03046703E-02
  0.726562500       5.46875000E-02  -6.93853945E-02  -2.85905153E-02   3.05436328E-02
  0.742187500       5.46875000E-02  -5.73633276E-02  -2.85490789E-02   3.06024272E-02
  0.757812500       5.46875000E-02  -4.53728177E-02  -2.76823025E-02   3.04876529E-02
  0.773437500       5.46875000E-02  -3.36902253E-02  -2.59387493E-02   3.02183200E-02
  0.789062500       5.46875000E-02  -2.26139519E-02  -2.33054198E-02   2.98252236E-02
  0.804687500       5.46875000E-02  -1.24494685E-02  -1.98214129E-02   2.93486919E-02
  0.820312500       5.46875000E-02  -3.48459976E-03  -1.55988969E-02   2.88343169E-02
  0.835937500       5.46875000E-02   3.93547630E-03  -1.09639214E-02   2.83267312E-02
  0.851562500       5.46875000E-02   9.48137976E-03  -6.30459003E-03   2.78476048E-02
  0.867187500       5.46875000E-02   1.30397435E-02  -1.99477561E-03   2.74252389E-02
  0.882812500       5.46875000E-02   1.46950316E-02   1.69053476E-03   2.70787254E-02
  0.898437500       5.46875000E-02   1.46840718E-02   4.58885636E-03   2.68084016E-02
  0.914062500       5.46875000E-02   1.33433016E-02   6.68003038E-03   2.66077612E-02
  0.929687500       5.46875000E-02   1.10365916E-02   7.93364737E-03   2.64702346E-02
  0.945312500       5.46875000E-02   8.14956892E-03   8.27939063E-03   2.63883788E-02
  0.960937500       5.46875000E-02   5.10231219E-03   7.58625614E-03   2.63568945E-02
  0.976562500       5.46875000E-02   2.37724464E-03   5.67045715E-03   2.63753012E-02
  0.992187500       5.46875000E-02   5.80313616E-04   2.36137351E-03   2.64505483E-02
   7.81250000E-03   7.03125000E-02   1.70106869E-04  -1.48848677E-03   2.49364749E-02
   2.34375000E-02   7.03125000E-02   5.79931249E-04  -2.83340178E-03   2.49406658E-02
   3.90625000E-02   7.03125000E-02   9.53583629E-04  -2.95583881E-03   2.49111317E-02
   5.46875000E-02   7.03125000E-02   1.00103882E-03  -2.21042568E-03   2.48527955E-02
   7.03125000E-02   7.03125000E-02   5.28200238E-04  -8.82300665E-04   2.47706696E-02
   8.59375000E-02   7.03125000E-02  -5.94990561E-04   8.06666794E-04   2.46694814E-02
  0.101562500       7.03125000E-02  -2.43728166E-03   2.68724584E-03   2.45519206E-02
  0.117187500       7.03125000E-02  -5.02787344E-03   4.64103930E-03   2.44202260E-02
  0.132812500       7.03125000E-02  -8.38057604E-03   6.60516554E-03   2.42743026E-02
  0.148437500       7.03125000E-02  -1.24960132E-02   8.55343603E-03   2.41131764E-02
  0.164062500       7.03125000E-02  -1.73663832E-02   1.04801953E-02   2.39349604E-02
  0.179687500       7.03125000E-02  -2.29759011E-02   1.23886243E-02   2.37375181E-02
  0.195312500       7.03125000E-02  -2.92992014E-02   1.42788775E-02   2.35187467E-02
  0.210937500       7.03125000E-02  -3.62995639E-02   1.61427334E-02   2.32769474E-02
  0.226562500       7.03125000E-02  -4.39272001E-02   1.79614294E-02   2.30110511E-02
  0.242187500       7.03125000E-02  -5.21185473E-02   1.97068304E-02   2.27208417E-02
  0.257812500       7.03125000E-02  -6.07963428E-02   2.13439614E-02   2.24071592E-02
  0.273437500       7.03125000E-02  -6.98706880E-02   2.28339862E-02   2.20720209E-02
  0.289062500       7.03125000E-02  -7.92407319E-02   2.41369251E-02   2.17187982E-02
  0.304687500       7.03125000E-02  -8.87967646E-02   2.52138637E-02   2.13523395E-02
  0.320312500       7.03125000E-02  -9.84226614E-02   2.60286182E-02   2.09790152E-02
  0.335937500       7.03125000E-02 -0.107998364       2.65489835E-02   2.06067469E-02
  0.351562500       7.03125000E-02 -0.117402315       2.67475471E-02   2.02449467E-02
  0.367187500       7.03125000E-02 -0.126513854       2.66022980E-02   1.99043546E-02
  0.382812500       7.03125000E-02 -0.135215253       2.60968767E-02   1.95968207E-02
  0.398437500       7.03125000E-02 -0.143393576       2.52206717E-02   1.93350166E-02
  0.414062500       7.03125000E-02 -0.150942191       2.39687338E-02   1.91320032E-02
  0.429687500       7.03125000E-02 -0.157761931       2.23415643E-02   1.90008320E-02
  0.445312500       7.03125000E-02 -0.163762182       2.03447510E-02   1.89540181E-02
  0.460937500       7.03125000E-02 -0.168861330       1.79885905E-02   1.90030485E-02
  0.476562500       7.03125000E-02 -0.172987193       1.52877122E-02   1.91578194E-02
  0.492187500       7.03125000E-02 -0.176077142       1.22607183E-02   1.94261335E-02
  0.507812500       7.03125000E-02 -0.178077728       8.92991386E-03   1.98132638E-02
  0.523437500       7.03125000E-02 -0.178944066       5.32128196E-03   2.03216523E-02
  0.539062500       7.03125000E-02 -0.178637668       1.46485004E-03   2.09510848E-02
  0.554687500       7.03125000E-02 -0.177119687      -2.60361284E-03   2.16742419E-02
  0.570312500       7.03125000E-02 -0.174377561      -6.87315874E-03   2.24825535E-02
  0.585937500       7.03125000E-02 -0.170426577      -1.12584028E-02   2.33637337E-02
  0.601562500       7.03125000E-02 -0.165285915      -1.56834833E-02   2.42953002E-02
  0.617187500       7.03125000E-02 -0.158984840      -2.00660788E-02   2.52508204E-02
  0.632812500       7.03125000E-02 -0.151563376      -2.43156999E-02   2.62007397E-02
  0.648437500       7.03125000E-02 -0.143074155      -2.83332784E-02   2.71132719E-02
  0.664062500       7.03125000E-02 -0.133584946      -3.20108347E-02   2.79557053E-02
  0.679687500       7.03125000E-02 -0.123181678      -3.52316499E-02   2.86961012E-02
  0.695312500       7.03125000E-02 -0.111971416      -3.78713384E-02   2.93052923E-02
  0.710937500       7.03125000E-02 -0.100085512      -3.98003273E-02   2.97592133E-02
  0.726562500       7.03125000E-02  -8.76826048E-02  -4.08881381E-02   3.00412551E-02
  0.742187500       7.03125000E-02  -7.49512315E-02  -4.10101190E-02   3.01445238E-02
  0.757812500       7.03125000E-02  -6.21115640E-02  -4.00571562E-02   3.00735906E-02
  0.773437500       7.03125000E-02  -4.94153872E-02  -3.79487947E-02   2.98454035E-02
  0.789062500       7.03125000E-02  -3.71432044E-02  -3.46502885E-02   2.94888988E-02
  0.804687500       7.03125000E-02  -2.55966838E-02  -3.01942304E-02   2.90428828E-02
  0.820312500       7.03125000E-02  -1.50862774E-02  -2.47081630E-02   2.85519119E-02
  0.835937500       7.03125000E-02  -5.91806136E-03  -1.84497088E-02   2.80605033E-02
  0.851562500       7.03125000E-02   1.58234150E-03  -1.18717263E-02   2.76013743E-02
  0.867187500       7.03125000E-02   7.06402306E-03  -5.47412829E-03   2.71960963E-02
  0.882812500       7.03125000E-02   1.04051819E-02   1.67259481E-04   2.68657506E-02
  0.898437500       7.03125000E-02   1.17690489E-02   4.75328881E-03   2.66169067E-02
  0.914062500       7.03125000E-02   1.14704799E-02   8.14932305E-03   2.64374465E-02
  0.929687500       7.03125000E-02   9.92362481E-03   1.03126913E-02   2.63185427E-02
  0.945312500       7.03125000E-02   7.55696325E-03   1.11490376E-02   2.62509938E-02
  0.960937500       7.03125000E-02   4.83325357E-03   1.04826633E-02   2.62285694E-02
  0.976562500       7.03125000E-02   2.28207023E-03   8.04538559E-03   2.62509305E-02
  0.992187500       7.03125000E-02   5.60647983E-04   3.50029184E-03   2.63259504E-02
   7.81250000E-03   8.59375000E-02   9.19703962E-05  -1.75120938E-03   2.50679944E-02
   2.34375000E-02   8.59375000E-02   2.19617330E-04  -3.10946698E-03   2.50564031E-02
   3.90625000E-02   8.59375000E-02   8.00263297E-05  -2.91516865E-03   2.50146464E-02
   5.46875000E-02   8.59375000E-02  -5.81564440E-04  -1.63821829E-03   2.49476414E-02
   7.03125000E-02   8.59375000E-02  -1.93071179E-03   3.66397813E-04   2.48607472E-02
   8.59375000E-02   8.59375000E-02  -4.05721599E-03   2.80686910E-03   2.47566923E-02
  0.101562500       8.59375000E-02  -7.00020697E-03   5.47191268E-03   2.46391352E-02
  0.117187500       8.59375000E-02  -1.07796295E-02   8.22636764E-03   2.45088022E-02
  0.132812500       8.59375000E-02  -1.53992213E-02   1.09925149E-02   2.43647601E-02
  0.148437500       8.59375000E-02  -2.08502840E-02   1.37334326E-02   2.42048614E-02
  0.164062500       8.59375000E-02  -2.71124225E-02   1.64340623E-02   2.40261406E-02
  0.179687500       8.59375000E-02  -3.41525376E-02   1.90862995E-02   2.38253344E-02
  0.195312500       8.59375000E-02  -4.19232100E-02   2.16777064E-02   2.35993396E-02
  0.210937500       8.59375000E-02  -5.03618419E-02   2.41861008E-02   2.33455524E-02
  0.226562500       8.59375000E-02  -5.93907274E-02   2.65785232E-02   2.30621994E-02
  0.242187500       8.59375000E-02  -6.89182580E-02   2.88132839E-02   2.27485429E-02
  0.257812500       8.59375000E-02  -7.88408741E-02   3.08433212E-02   2.24051140E-02
  0.273437500       8.59375000E-02  -8.90455693E-02   3.26197445E-02   2.20338944E-02
  0.289062500       8.59375000E-02  -9.94126499E-02   3.40948924E-02   2.16384698E-02
  0.304687500       8.59375000E-02 -0.109818459       3.52247208E-02   2.12241337E-02
  0.320312500       8.59375000E-02 -0.120138139       3.59704755E-02   2.07979437E-02
  0.335937500       8.59375000E-02 -0.130248100       3.62998433E-02   2.03686915E-02
  0.351562500       8.59375000E-02 -0.140028328       3.61875929E-02   1.99467950E-02
  0.367187500       8.59375000E-02 -0.149364233       3.56158502E-02   1.95440948E-02
  0.382812500       8.59375000E-02 -0.158148199       3.45741250E-02   1.91735812E-02
  0.398437500       8.59375000E-02 -0.166280925       3.30590233E-02   1.88489966E-02
  0.414062500       8.59375000E-02 -0.173672110       3.10738347E-02   1.85844637E-02