 VARIABLES="X","Y","U","V","P"
 ZONE F=POINT, I=          64 , J=          64
   7.81250000E-03   7.81250000E-03   5.41466907E-05  -5.41742629E-05   2.42521800E-02
   2.34375000E-02   7.81250000E-03   2.74949387E-04  -1.66694299E-04   2.42673270E-02
   3.90625000E-02   7.81250000E-03   6.55986369E-04  -2.14419531E-04   2.42547747E-02
   5.46875000E-02   7.81250000E-03   1.07892230E-03  -2.08594050E-04   2.42052265E-02
   7.03125000E-02   7.81250000E-03   1.45765883E-03  -1.70224885E-04   2.41193231E-02
   8.59375000E-02   7.81250000E-03   1.74371479E-03  -1.15913434E-04   2.40016356E-02
  0.101562500       7.81250000E-03   1.91579782E-03  -5.62474161E-05   2.38573905E-02
  0.117187500       7.81250000E-03   1.96889578E-03   3.07102255E-06   2.36908980E-02
  0.132812500       7.81250000E-03   1.90594350E-03   5.98022089E-05   2.35051271E-02
  0.148437500       7.81250000E-03   1.73272693E-03   1.13335642E-04   2.33017281E-02
  0.164062500       7.81250000E-03   1.45396125E-03   1.65355319E-04   2.30810996E-02
  0.179687500       7.81250000E-03   1.07178104E-03   2.16754313E-04   2.28431597E-02
  0.195312500       7.81250000E-03   5.84868947E-04   2.70080694E-04   2.25873813E-02
  0.210937500       7.81250000E-03  -1.12411217E-05   3.25952424E-04   2.23140996E-02
  0.226562500       7.81250000E-03  -7.22066732E-04   3.84804938E-04   2.20235661E-02
  0.242187500       7.81250000E-03  -1.55401882E-03   4.47078550E-04   2.17173882E-02
  0.257812500       7.81250000E-03  -2.51347967E-03   5.12310886E-04   2.13978738E-02
  0.273437500       7.81250000E-03  -3.60542675E-03   5.79561922E-04   2.10684240E-02
  0.289062500       7.81250000E-03  -4.83263936E-03   6.47574605E-04   2.07335874E-02
  0.304687500       7.81250000E-03  -6.19514287E-03   7.14855560E-04   2.03990694E-02
  0.320312500       7.81250000E-03  -7.68978056E-03   7.79714435E-04   2.00717561E-02
  0.335937500       7.81250000E-03  -9.30988695E-03   8.40323220E-04   1.97596475E-02
  0.351562500       7.81250000E-03  -1.10450182E-02   8.94736557E-04   1.94718018E-02
  0.367187500       7.81250000E-03  -1.28807640E-02   9.40937665E-04   1.92181785E-02
  0.382812500       7.81250000E-03  -1.47986598E-02   9.76887299E-04   1.90094523E-02
  0.398437500       7.81250000E-03  -1.67761669E-02   1.00054825E-03   1.88567527E-02
  0.414062500       7.81250000E-03  -1.87867507E-02   1.00996334E-03   1.87713671E-02
  0.429687500       7.81250000E-03  -2.08000615E-02   1.00327504E-03   1.87643506E-02
  0.445312500       7.81250000E-03  -2.27821879E-02   9.78781842E-04   1.88461263E-02
  0.460937500       7.81250000E-03  -2.46959925E-02   9.34950134E-04   1.90260224E-02
  0.476562500       7.81250000E-03  -2.65014879E-02   8.70465243E-04   1.93117689E-02
  0.492187500       7.81250000E-03  -2.81562693E-02   7.84234784E-04   1.97089650E-02
  0.507812500       7.81250000E-03  -2.96159834E-02   6.75396819E-04   2.02205144E-02
  0.523437500       7.81250000E-03  -3.08348797E-02   5.43424336E-04   2.08460167E-02
  0.539062500       7.81250000E-03  -3.17667760E-02   3.88401299E-04   2.15810612E-02
  0.554687500       7.81250000E-03  -3.23673598E-02   2.12096274E-04   2.24164408E-02
  0.570312500       7.81250000E-03  -3.25999409E-02   2.03875006E-05   2.33373176E-02
  0.585937500       7.81250000E-03  -3.24399099E-02  -1.80506700E-04   2.43159607E-02
  0.601562500       7.81250000E-03  -3.18555757E-02  -4.03917627E-04   2.53257416E-02
  0.617187500       7.81250000E-03  -3.08098048E-02  -6.41944469E-04   2.63420288E-02
  0.632812500       7.81250000E-03  -2.92830206E-02  -8.84928217E-04   2.73351576E-02
  0.648437500       7.81250000E-03  -2.72752382E-02  -1.12294464E-03   2.82726437E-02
  0.664062500       7.81250000E-03  -2.48068981E-02  -1.34548976E-03   2.91210487E-02
  0.679687500       7.81250000E-03  -2.19201352E-02  -1.54136296E-03   2.98479944E-02
  0.695312500       7.81250000E-03  -1.86799578E-02  -1.69889932E-03   3.04244421E-02
  0.710937500       7.81250000E-03  -1.51746171E-02  -1.80652470E-03   3.08271348E-02
  0.726562500       7.81250000E-03  -1.15146097E-02  -1.85357139E-03   3.10409926E-02
  0.742187500       7.81250000E-03  -7.82978255E-03  -1.83135096E-03   3.10611930E-02
  0.757812500       7.81250000E-03  -4.26441757E-03  -1.73410377E-03   3.08945626E-02
  0.773437500       7.81250000E-03  -9.71504254E-04  -1.55889359E-03   3.05600315E-02
  0.789062500       7.81250000E-03   1.88885909E-03  -1.30155229E-03   3.00931428E-02
  0.804687500       7.81250000E-03   4.18558531E-03  -9.95256240E-04   2.95361504E-02
  0.820312500       7.81250000E-03   5.85092697E-03  -6.70163659E-04   2.89308988E-02
  0.835937500       7.81250000E-03   6.87179016E-03  -3.50772316E-04   2.83187702E-02
  0.851562500       7.81250000E-03   7.28499331E-03  -6.24967652E-05   2.77367868E-02
  0.867187500       7.81250000E-03   7.17134820E-03   1.76073969E-04   2.72136033E-02
  0.882812500       7.81250000E-03   6.63516205E-03   3.60037346E-04   2.67681498E-02
  0.898437500       7.81250000E-03   5.78346755E-03   4.91583080E-04   2.64080819E-02
  0.914062500       7.81250000E-03   4.71759774E-03   5.74213918E-04   2.61349976E-02
  0.929687500       7.81250000E-03   3.53464065E-03   6.08672504E-04   2.59467848E-02
  0.945312500       7.81250000E-03   2.33698636E-03   5.88908675E-04   2.58390903E-02
  0.960937500       7.81250000E-03   1.24918297E-03   4.98820096E-04   2.58048624E-02
  0.976562500       7.81250000E-03   4.33114270E-04   3.17173632E-04   2.58300360E-02
  0.992187500       7.81250000E-03   5.79508451E-05   5.79303196E-05   2.58829128E-02
   7.81250000E-03   2.34375000E-02   1.67925027E-04  -2.76306993E-04   2.42369883E-02
   2.34375000E-02   2.34375000E-02   6.83504681E-04  -6.81092090E-04   2.42520273E-02
   3.90625000E-02   2.34375000E-02   1.43883890E-03  -8.36568535E-04   2.42362730E-02
   5.46875000E-02   2.34375000E-02   2.22137058E-03  -7.92094390E-04   2.41874941E-02
   7.03125000E-02   2.34375000E-02   2.87520699E-03  -6.19485159E-04   2.41069421E-02
   8.59375000E-02   2.34375000E-02   3.30024585E-03  -3.77928402E-04   2.39980873E-02
  0.101562500       2.34375000E-02   3.44082783E-03  -1.07073909E-04   2.38649230E-02
  0.117187500       2.34375000E-02   3.27167008E-03   1.69786057E-04   2.37107985E-02
  0.132812500       2.34375000E-02   2.78585311E-03   4.41686192E-04   2.35379934E-02
  0.148437500       2.34375000E-02   1.98618136E-03   7.04159611E-04   2.33478881E-02
  0.164062500       2.34375000E-02   8.75912665E-04   9.63392842E-04   2.31406204E-02
  0.179687500       2.34375000E-02  -5.44473063E-04   1.22111931E-03   2.29163282E-02
  0.195312500       2.34375000E-02  -2.27551139E-03   1.48349931E-03   2.26739012E-02
  0.210937500       2.34375000E-02  -4.32188762E-03   1.75484992E-03   2.24140622E-02
  0.226562500       2.34375000E-02  -6.69167563E-03   2.03636056E-03   2.21371595E-02
  0.242187500       2.34375000E-02  -9.39177163E-03   2.32741586E-03   2.18444336E-02
  0.257812500       2.34375000E-02  -1.24251842E-02   2.62468262E-03   2.15379857E-02
  0.273437500       2.34375000E-02  -1.57891978E-02   2.92298663E-03   2.12209187E-02
  0.289062500       2.34375000E-02  -1.94738619E-02   3.21587035E-03   2.08974257E-02
  0.304687500       2.34375000E-02  -2.34609675E-02   3.49600986E-03   2.05728263E-02
  0.320312500       2.34375000E-02  -2.77234334E-02   3.75550915E-03   2.02536173E-02
  0.335937500       2.34375000E-02  -3.22251059E-02   3.98615422E-03   1.99474171E-02
  0.351562500       2.34375000E-02  -3.69208679E-02   4.17963602E-03   1.96629334E-02
  0.367187500       2.34375000E-02  -4.17569950E-02   4.32776101E-03   1.94098167E-02
  0.382812500       2.34375000E-02  -4.66718525E-02   4.42266930E-03   1.91984847E-02
  0.398437500       2.34375000E-02  -5.15967347E-02   4.45700344E-03   1.90398917E-02
  0.414062500       2.34375000E-02  -5.64569160E-02   4.42411564E-03   1.89452022E-02
  0.429687500       2.34375000E-02  -6.11728393E-02   4.31819586E-03   1.89254414E-02
  0.445312500       2.34375000E-02  -6.56614006E-02   4.13438538E-03   1.89910699E-02
  0.460937500       2.34375000E-02  -6.98372722E-02   3.86885763E-03   1.91515405E-02
  0.476562500       2.34375000E-02  -7.36142844E-02   3.51889036E-03   1.94147676E-02
  0.492187500       2.34375000E-02  -7.69067928E-02   3.08292545E-03   1.97866242E-02
  0.507812500       2.34375000E-02  -7.96312243E-02   2.56067445E-03   2.02703886E-02
  0.523437500       2.34375000E-02  -8.17077830E-02   1.95343303E-03   2.08661724E-02
  0.539062500       2.34375000E-02  -8.30626786E-02   1.26502605E-03   2.15704124E-02
  0.554687500       2.34375000E-02  -8.36317092E-02   5.04896685E-04   2.23752670E-02
  0.570312500       2.34375000E-02  -8.33704770E-02  -3.01269611E-04   2.32663117E-02
  0.585937500       2.34375000E-02  -8.22146013E-02  -1.17495691E-03   2.42046956E-02
  0.601562500       2.34375000E-02  -8.00983906E-02  -2.11020140E-03   2.51771323E-02
  0.617187500       2.34375000E-02  -7.70016983E-02  -3.07832146E-03   2.61572246E-02
  0.632812500       2.34375000E-02  -7.29304999E-02  -4.04673489E-03   2.71156207E-02
  0.648437500       2.34375000E-02  -6.79185539E-02  -4.98105865E-03   2.80206855E-02
  0.664062500       2.34375000E-02  -6.20297194E-02  -5.84475650E-03   2.88400091E-02
  0.679687500       2.34375000E-02  -5.53596132E-02  -6.59915665E-03   2.95423046E-02
  0.695312500       2.34375000E-02  -4.80369143E-02  -7.20416568E-03   3.00996434E-02
  0.710937500       2.34375000E-02  -4.02239002E-02  -7.61979539E-03   3.04898676E-02
  0.726562500       2.34375000E-02  -3.21158841E-02  -7.80851115E-03   3.06989290E-02
  0.742187500       2.34375000E-02  -2.39388999E-02  -7.73841515E-03   3.07229534E-02
  0.757812500       2.34375000E-02  -1.59448087E-02  -7.38668349E-03   3.05696018E-02
  0.773437500       2.34375000E-02  -8.40247516E-03  -6.74174447E-03   3.02584320E-02
  0.789062500       2.34375000E-02  -1.58222241E-03  -5.79949468E-03   2.98197940E-02
  0.804687500       2.34375000E-02   4.21856483E-03  -4.59501240E-03   2.93071643E-02
  0.820312500       2.34375000E-02   8.75821430E-03  -3.27557581E-03   2.87516564E-02
  0.835937500       2.34375000E-02   1.19404364E-02  -1.94860459E-03   2.81897020E-02
  0.851562500       2.34375000E-02   1.37732448E-02  -7.10829219E-04   2.76567191E-02
  0.867187500       2.34375000E-02   1.43565284E-02   3.54621676E-04   2.71791518E-02
  0.882812500       2.34375000E-02   1.38708279E-02   1.20322139E-03   2.67730113E-02
  0.898437500       2.34375000E-02   1.25363171E-02   1.83444796E-03   2.64447927E-02
  0.914062500       2.34375000E-02   1.05792377E-02   2.25414149E-03   2.61947997E-02
  0.929687500       2.34375000E-02   8.23090412E-03   2.45987857E-03   2.60197669E-02
  0.945312500       2.34375000E-02   5.73722459E-03   2.42887810E-03   2.59143449E-02
  0.960937500       2.34375000E-02   3.37384106E-03   2.10987125E-03   2.58717220E-02
  0.976562500       2.34375000E-02   1.45631575E-03   1.43955369E-03   2.58829184E-02
  0.992187500       2.34375000E-02   3.25534405E-04   4.41357988E-04   2.59357058E-02
   7.81250000E-03   3.90625000E-02   2.19320835E-04  -6.63632003E-04   2.42495723E-02
   2.34375000E-02   3.90625000E-02   8.48274620E-04  -1.43848173E-03   2.42667589E-02
   3.90625000E-02   3.90625000E-02   1.69844984E-03  -1.68488990E-03   2.42495686E-02
   5.46875000E-02   3.90625000E-02   2.49940995E-03  -1.52746844E-03   2.42003240E-02
   7.03125000E-02   3.90625000E-02   3.06457980E-03  -1.10332505E-03   2.41220426E-02
   8.59375000E-02   3.90625000E-02   3.27031827E-03  -5.25065407E-04   2.40185149E-02
  0.101562500       3.90625000E-02   3.03882081E-03   1.30785236E-04   2.38933749E-02
  0.117187500       3.90625000E-02   2.32888432E-03   8.10830737E-04   2.37492397E-02
  0.132812500       3.90625000E-02   1.12342555E-03   1.49173080E-03   2.35877968E-02
  0.148437500       3.90625000E-02  -5.82472829E-04   2.15949002E-03   2.34104525E-02
  0.164062500       3.90625000E-02  -2.78371340E-03   2.81937444E-03   2.32156627E-02
  0.179687500       3.90625000E-02  -5.47615718E-03   3.47778201E-03   2.30037067E-02
  0.195312500       3.90625000E-02  -8.66123289E-03   4.14277148E-03   2.27737445E-02
  0.210937500       3.90625000E-02  -1.23401592E-02   4.82069189E-03   2.25255750E-02
  0.226562500       3.90625000E-02  -1.65111665E-02   5.51112648E-03   2.22593695E-02
  0.242187500       3.90625000E-02  -2.11669188E-02   6.20831363E-03   2.19760090E-02
  0.257812500       3.90625000E-02  -2.62916163E-02   6.90170657E-03   2.16772370E-02
  0.273437500       3.90625000E-02  -3.18590626E-02   7.57724047E-03   2.13657729E-02
  0.289062500       3.90625000E-02  -3.78315002E-02   8.21854733E-03   2.10454334E-02
  0.304687500       3.90625000E-02  -4.41591740E-02   8.80794600E-03   2.07211953E-02
  0.320312500       3.90625000E-02  -5.07805720E-02   9.32726916E-03   2.03992557E-02
  0.335937500       3.90625000E-02  -5.76231889E-02   9.75850970E-03   2.00870223E-02
  0.351562500       3.90625000E-02  -6.46047071E-02   1.00843776E-02   1.97930727E-02
  0.367187500       3.90625000E-02  -7.16344938E-02   1.02887750E-02   1.95270441E-02
  0.382812500       3.90625000E-02  -7.86153451E-02   1.03571992E-02   1.92994475E-02
  0.398437500       3.90625000E-02  -8.54452699E-02   1.02771018E-02   1.91214345E-02
  0.414062500       3.90625000E-02  -9.20193493E-02   1.00381086E-02   1.90044697E-02
  0.429687500       3.90625000E-02  -9.82315987E-02   9.63221490E-03   1.89599562E-02
  0.445312500       3.90625000E-02 -0.103976719       9.05387755E-03   1.89988147E-02
  0.460937500       3.90625000E-02 -0.109151751       8.30008183E-03   1.91310085E-02
  0.476562500       3.90625000E-02 -0.113657631       7.37035461E-03   1.93650182E-02
  0.492187500       3.90625000E-02 -0.117400706       6.26684632E-03   1.97073296E-02
  0.507812500       3.90625000E-02 -0.120294228       4.99452651E-03   2.01619025E-02
  0.523437500       3.90625000E-02 -0.122259960       3.56169045E-03   2.07297094E-02
  0.539062500       3.90625000E-02 -0.123229459       1.98098132E-03   2.14085225E-02
  0.554687500       3.90625000E-02 -0.123142436       2.70748307E-04   2.21937243E-02
  0.570312500       3.90625000E-02 -0.121927768      -1.54323108E-03   2.30473727E-02
  0.585937500       3.90625000E-02 -0.119533166      -3.48368334E-03   2.39601713E-02
  0.601562500       3.90625000E-02 -0.115948707      -5.50234970E-03   2.49103550E-02
  0.617187500       3.90625000E-02 -0.111185819      -7.54596666E-03   2.58717202E-02
  0.632812500       3.90625000E-02 -0.105279364      -9.55695659E-03   2.68148705E-02
  0.648437500       3.90625000E-02  -9.82884765E-02  -1.14738662E-02   2.77082399E-02
  0.664062500       3.90625000E-02  -9.02982801E-02  -1.32311890E-02   2.85195298E-02
  0.679687500       3.90625000E-02  -8.14216658E-02  -1.47596560E-02   2.92175375E-02
  0.695312500       3.90625000E-02  -7.18009919E-02  -1.59872472E-02   2.97743566E-02
  0.710937500       3.90625000E-02  -6.16095960E-02  -1.68413278E-02   3.01677603E-02
  0.726562500       3.90625000E-02  -5.10526672E-02  -1.72521174E-02   3.03835571E-02
  0.742187500       3.90625000E-02  -4.03671488E-02  -1.71575174E-02   3.04177441E-02
  0.757812500       3.90625000E-02  -2.98196822E-02  -1.65093299E-02   3.02779600E-02
  0.773437500       3.90625000E-02  -1.97013486E-02  -1.52799608E-02   2.99840346E-02
  0.789062500       3.90625000E-02  -1.03157600E-02  -1.34673072E-02   2.95672528E-02
  0.804687500       3.90625000E-02  -1.95186143E-03  -1.10920770E-02   2.90682465E-02
  0.820312500       3.90625000E-02   5.04927104E-03  -8.31948034E-03   2.85427123E-02
  0.835937500       3.90625000E-02   1.03948452E-02  -5.43266255E-03   2.80122533E-02
  0.851562500       3.90625000E-02   1.39872320E-02  -2.65213102E-03   2.75108032E-02
  0.867187500       3.90625000E-02   1.58657320E-02  -1.66010839E-04   2.70663723E-02
  0.882812500       3.90625000E-02   1.61910225E-02   1.88411679E-03   2.66937688E-02
  0.898437500       3.90625000E-02   1.52235609E-02   3.45536764E-03   2.63957195E-02
  0.914062500       3.90625000E-02   1.32646002E-02   4.54909680E-03   2.61704735E-02
  0.929687500       3.90625000E-02   1.06261652E-02   5.15152188E-03   2.60130409E-02
  0.945312500       3.90625000E-02   7.63990963E-03   5.21700177E-03   2.59171948E-02
  0.960937500       3.90625000E-02   4.66923229E-03   4.65563312E-03   2.58773305E-02
  0.976562500       3.90625000E-02   2.12688232E-03   3.35349422E-03   2.58900989E-02
  0.992187500       3.90625000E-02   5.09053236E-04   1.27588119E-03   2.59565711E-02
   7.81250000E-03   5.46875000E-02   2.15505264E-04  -1.09854853E-03   2.43008416E-02
   2.34375000E-02   5.46875000E-02   7.99447298E-04  -2.21665576E-03   2.43148431E-02
   3.90625000E-02   5.46875000E-02   1.51123200E-03  -2.46887607E-03   2.42936015E-02
   5.46875000E-02   5.46875000E-02   2.05474230E-03  -2.08814372E-03   2.42414325E-02
   7.03125000E-02   5.46875000E-02   2.23204913E-03  -1.28531898E-03   2.41626967E-02
   8.59375000E-02   5.46875000E-02   1.90967345E-03  -2.26626245E-04   2.40618400E-02
  0.101562500       5.46875000E-02   1.00105023E-03   9.72278940E-04   2.39416342E-02
  0.117187500       5.46875000E-02  -5.40057721E-04   2.22018827E-03   2.38055848E-02
  0.132812500       5.46875000E-02  -2.72766408E-03   3.47524555E-03   2.36537419E-02
  0.148437500       5.46875000E-02  -5.56274317E-03   4.71676700E-03   2.34863870E-02
  0.164062500       5.46875000E-02  -9.04405862E-03   5.94446389E-03   2.33022962E-02
  0.179687500       5.46875000E-02  -1.31668411E-02   7.16773234E-03   2.31004003E-02
  0.195312500       5.46875000E-02  -1.79228038E-02   8.39367043E-03   2.28794552E-02
  0.210937500       5.46875000E-02  -2.32981928E-02   9.62391496E-03   2.26385631E-02
  0.226562500       5.46875000E-02  -2.92707756E-02   1.08513124E-02   2.23773494E-02
  0.242187500       5.46875000E-02  -3.58076096E-02   1.20605286E-02   2.20961887E-02
  0.257812500       5.46875000E-02  -4.28633094E-02   1.32296989E-02   2.17963569E-02
  0.273437500       5.46875000E-02  -5.03793061E-02   1.43325087E-02   2.14801729E-02
  0.289062500       5.46875000E-02  -5.82840219E-02   1.53402518E-02   2.11511347E-02
  0.304687500       5.46875000E-02  -6.64937645E-02   1.62234902E-02   2.08140202E-02
  0.320312500       5.46875000E-02  -7.49142468E-02   1.69534292E-02   2.04749554E-02
  0.335937500       5.46875000E-02  -8.34424347E-02   1.75029766E-02   2.01414116E-02
  0.351562500       5.46875000E-02  -9.19687524E-02   1.78475734E-02   1.98221877E-02
  0.367187500       5.46875000E-02 -0.100379333       1.79657806E-02   1.95272900E-02
  0.382812500       5.46875000E-02 -0.108558238       1.78397633E-02   1.92677230E-02
  0.398437500       5.46875000E-02 -0.116389558       1.74556002E-02   1.90552324E-02
  0.414062500       5.46875000E-02 -0.123759441       1.68034062E-02   1.89019535E-02
  0.429687500       5.46875000E-02 -0.130557775       1.58773586E-02   1.88200194E-02
  0.445312500       5.46875000E-02 -0.136679754       1.46756750E-02   1.88210979E-02
  0.460937500       5.46875000E-02 -0.142027095       1.32004805E-02   1.89158916E-02
  0.476562500       5.46875000E-02 -0.146509081       1.14576332E-02   1.91136003E-02
  0.492187500       5.46875000E-02 -0.150043339       9.45669506E-03   1.94214173E-02
  0.507812500       5.46875000E-02 -0.152556270       7.21094757E-03   1.98440179E-02
  0.523437500       5.46875000E-02 -0.153983310       4.73786052E-03   2.03830712E-02
  0.539062500       5.46875000E-02 -0.154269308       2.06011673E-03   2.10366622E-02
  0.554687500       5.46875000E-02 -0.153372705      -7.92215520E-04   2.17974838E-02
  0.570312500       5.46875000E-02 -0.151245445      -3.82237858E-03   2.26233546E-02
  0.585937500       5.46875000E-02 -0.147862792      -6.98196609E-03   2.35171951E-02
  0.601562500       5.46875000E-02 -0.143244863      -1.02066472E-02   2.44546868E-02
  0.617187500       5.46875000E-02 -0.137424365      -1.34252636E-02   2.54089646E-02
  0.632812500       5.46875000E-02 -0.130447909      -1.65607650E-02   2.63503715E-02
  0.648437500       5.46875000E-02 -0.122378975      -1.95300542E-02   2.72471607E-02
  0.664062500       5.46875000E-02 -0.113300540      -2.22438201E-02   2.80668046E-02
  0.679687500       5.46875000E-02 -0.103317596      -2.46067978E-02   2.87777856E-02
  0.695312500       5.46875000E-02  -9.25596878E-02  -2.65188776E-02   2.93516815E-02
  0.710937500       5.46875000E-02  -8.11834335E-02  -2.78775170E-02   2.97655314E-02
  0.726562500       5.46875000E-02  -6.93747252E-02  -2.85817552E-02   3.00042424E-02
  0.742187500       5.46875000E-02  -5.73501736E-02  -2.85381563E-02   3.00627500E-02
  0.757812500       5.46875000E-02  -4.53574210E-02  -2.76690833E-02   2.99476795E-02
  0.773437500       5.46875000E-02  -3.36729735E-02  -2.59231627E-02   2.96780393E-02
  0.789062500       5.46875000E-02  -2.25953721E-02  -2.32874621E-02   2.92846560E-02
  0.804687500       5.46875000E-02  -1.24301892E-02  -1.98011622E-02   2.88078748E-02
  0.820312500       5.46875000E-02  -3.46532837E-03  -1.55765563E-02   2.82933097E-02
  0.835937500       5.46875000E-02   3.95358074E-03  -1.09402314E-02   2.77856067E-02
  0.851562500       5.46875000E-02   9.49722528E-03  -6.28075656E-03   2.73064338E-02
  0.867187500       5.46875000E-02   1.30528174E-02  -1.97163457E-03   2.68840790E-02
  0.882812500       5.46875000E-02   1.47049455E-02   1.71217090E-03   2.65376363E-02
  0.898437500       5.46875000E-02   1.46908760E-02   4.60868888E-03   2.62673944E-02
  0.914062500       5.46875000E-02   1.33473817E-02   6.69808034E-03   2.60668434E-02
  0.929687500       5.46875000E-02   1.10383090E-02   7.94989523E-03   2.59294137E-02
  0.945312500       5.46875000E-02   8.14939756E-03   8.29363056E-03   2.58476511E-02
  0.960937500       5.46875000E-02   5.10095153E-03   7.59795867E-03   2.58162692E-02
  0.976562500       5.46875000E-02   2.37568049E-03   5.67863230E-03   2.58347727E-02
  0.992187500       5.46875000E-02   5.79621235E-04   2.36449437E-03   2.59100981E-02
   7.81250000E-03   7.03125000E-02   1.70243860E-04  -1.48438034E-03   2.43929885E-02
   2.34375000E-02   7.03125000E-02   5.80264197E-04  -2.82496167E-03   2.43972596E-02
   3.90625000E-02   7.03125000E-02   9.54096438E-04  -2.94637540E-03   2.43678931E-02
   5.46875000E-02   7.03125000E-02   1.00197317E-03  -2.20221607E-03   2.43098158E-02
   7.03125000E-02   7.03125000E-02   5.29965851E-04  -8.76728620E-04   2.42280141E-02
   8.59375000E-02   7.03125000E-02  -5.91896824E-04   8.08837300E-04   2.41272226E-02
  0.101562500       7.03125000E-02  -2.43241480E-03   2.68576574E-03   2.40101032E-02
  0.117187500       7.03125000E-02  -5.02091274E-03   4.63611260E-03   2.38789003E-02
  0.132812500       7.03125000E-02  -8.37134942E-03   6.59717713E-03   2.37334836E-02
  0.148437500       7.03125000E-02  -1.24845644E-02   8.54294840E-03   2.35728733E-02
  0.164062500       7.03125000E-02  -1.73529573E-02   1.04678078E-02   2.33951677E-02
  0.179687500       7.03125000E-02  -2.29609460E-02   1.23749673E-02   2.31982134E-02
  0.195312500       7.03125000E-02  -2.92833261E-02   1.42645836E-02   2.29798947E-02
  0.210937500       7.03125000E-02  -3.62835117E-02   1.61283799E-02   2.27384903E-02
  0.226562500       7.03125000E-02  -4.39117886E-02   1.79475266E-02   2.24729143E-02
  0.242187500       7.03125000E-02  -5.21045849E-02   1.96937658E-02   2.21829489E-02
  0.257812500       7.03125000E-02  -6.07846230E-02   2.13320032E-02   2.18694136E-02
  0.273437500       7.03125000E-02  -6.98618740E-02   2.28232704E-02   2.15343311E-02
  0.289062500       7.03125000E-02  -7.92353004E-02   2.41274722E-02   2.11810805E-02
  0.304687500       7.03125000E-02  -8.87950361E-02   2.52055787E-02   2.08145157E-02
  0.320312500       7.03125000E-02  -9.84247327E-02   2.60213315E-02   2.04410311E-02
  0.335937500       7.03125000E-02 -0.108004123       2.65424643E-02   2.00685766E-02
  0.351562500       7.03125000E-02 -0.117411464       2.67415829E-02   1.97065677E-02
  0.367187500       7.03125000E-02 -0.126525939       2.65966691E-02   1.93657912E-02
  0.382812500       7.03125000E-02 -0.135229766       2.60914061E-02   1.90581158E-02
  0.398437500       7.03125000E-02 -0.143409908       2.52152421E-02   1.87962111E-02
  0.414062500       7.03125000E-02 -0.150959700       2.39632837E-02   1.85931493E-02
  0.429687500       7.03125000E-02 -0.157780096       2.23360583E-02   1.84619837E-02
  0.445312500       7.03125000E-02 -0.163780510       2.03391872E-02   1.84152219E-02
  0.460937500       7.03125000E-02 -0.168879390       1.79830268E-02   1.84643324E-02
  0.476562500       7.03125000E-02 -0.173004687       1.52822044E-02   1.86192021E-02
  0.492187500       7.03125000E-02 -0.176093817       1.22553185E-02   1.88876055E-02
  0.507812500       7.03125000E-02 -0.178093404       8.92466959E-03   1.92748196E-02
  0.523437500       7.03125000E-02 -0.178958654       5.31622907E-03   1.97832678E-02
  0.539062500       7.03125000E-02 -0.178651109       1.46001019E-03   2.04127189E-02
  0.554687500       7.03125000E-02 -0.177131817      -2.60822871E-03   2.11358666E-02
  0.570312500       7.03125000E-02 -0.174388140      -6.87747262E-03   2.19441950E-02
  0.585937500       7.03125000E-02 -0.170435503      -1.12623014E-02   2.28253677E-02
  0.601562500       7.03125000E-02 -0.165293097      -1.56868268E-02   2.37569138E-02
  0.617187500       7.03125000E-02 -0.158990145      -2.00687069E-02   2.47123949E-02
  0.632812500       7.03125000E-02 -0.151566684      -2.43174396E-02   2.56622583E-02
  0.648437500       7.03125000E-02 -0.143075258      -2.83339135E-02   2.65747067E-02
  0.664062500       7.03125000E-02 -0.133583680      -3.20101380E-02   2.74170339E-02
  0.679687500       7.03125000E-02 -0.123177923      -3.52293737E-02   2.81572882E-02
  0.695312500       7.03125000E-02 -0.111965090      -3.78672257E-02   2.87663080E-02
  0.710937500       7.03125000E-02 -0.100076541      -3.97941135E-02   2.92200111E-02
  0.726562500       7.03125000E-02  -8.76710117E-02  -4.08795699E-02   2.95018069E-02
  0.742187500       7.03125000E-02  -7.49371350E-02  -4.09989618E-02   2.96047963E-02
  0.757812500       7.03125000E-02  -6.20951727E-02  -4.00431715E-02   2.95335613E-02
  0.773437500       7.03125000E-02  -4.93970253E-02  -3.79318297E-02   2.93050688E-02
  0.789062500       7.03125000E-02  -3.71233150E-02  -3.46302576E-02   2.89482661E-02
  0.804687500       7.03125000E-02  -2.55758483E-02  -3.01711634E-02   2.85019893E-02
  0.820312500       7.03125000E-02  -1.50651783E-02  -2.46822424E-02   2.80108228E-02
  0.835937500       7.03125000E-02  -5.89742698E-03  -1.84213594E-02   2.75192931E-02
  0.851562500       7.03125000E-02   1.60127936E-03  -1.18421363E-02   2.70601045E-02
  0.867187500       7.03125000E-02   7.08010979E-03  -5.44483308E-03   2.66548246E-02
  0.882812500       7.03125000E-02   1.04177995E-02   1.95394066E-04   2.63245460E-02
  0.898437500       7.03125000E-02   1.17781032E-02   4.77907527E-03   2.60758214E-02
  0.914062500       7.03125000E-02   1.14763686E-02   8.17277748E-03   2.58964580E-02
  0.929687500       7.03125000E-02   9.92675126E-03   1.03337504E-02   2.57776491E-02
  0.945312500       7.03125000E-02   7.55788200E-03   1.11674014E-02   2.57101916E-02
  0.960937500       7.03125000E-02   4.83270828E-03   1.04976483E-02   2.56878510E-02
  0.976562500       7.03125000E-02   2.28102412E-03   8.05575401E-03   2.57102940E-02
  0.992187500       7.03125000E-02   5.60134358E-04   3.50418687E-03   2.57853828E-02
   7.81250000E-03   8.59375000E-02   9.21471874E-05  -1.74684799E-03   2.45242119E-02
   2.34375000E-02   8.59375000E-02   2.20268848E-04  -3.10080033E-03   2.45127343E-02
   3.90625000E-02   8.59375000E-02   8.14725427E-05  -2.90575856E-03   2.44711731E-02
   5.46875000E-02   8.59375000E-02  -5.78893407E-04  -1.63052790E-03   2.44044531E-02
   7.03125000E-02   8.59375000E-02  -1.92631013E-03   3.70828668E-04   2.43179146E-02
   8.59375000E-02   8.59375000E-02  -4.05062782E-03   2.80727702E-03   2.42142901E-02
  0.101562500       8.59375000E-02  -6.99114613E-03   5.46817714E-03   2.40972135E-02
  0.117187500       8.59375000E-02  -1.07679795E-02   8.21883697E-03   2.39674021E-02
  0.132812500       8.59375000E-02  -1.53850429E-02   1.09817646E-02   2.38239113E-02
  0.148437500       8.59375000E-02  -2.08338313E-02   1.37201827E-02   2.36645713E-02
  0.164062500       8.59375000E-02  -2.70941481E-02   1.64190959E-02   2.34864056E-02
  0.179687500       8.59375000E-02  -3.41330543E-02   1.90703906E-02   2.32861377E-02
  0.195312500       8.59375000E-02  -4.19032760E-02   2.16615759E-02   2.30606366E-02
  0.210937500       8.59375000E-02  -5.03422767E-02   2.41703857E-02   2.28072871E-02
  0.226562500       8.59375000E-02  -5.93723878E-02   2.65637226E-02   2.25242805E-02
  0.242187500       8.59375000E-02  -6.89019561E-02   2.87997592E-02   2.22108774E-02
  0.257812500       8.59375000E-02  -7.88273513E-02   3.08312476E-02   2.18675975E-02
  0.273437500       8.59375000E-02  -8.90354067E-02   3.26091535E-02   2.14964245E-02
  0.289062500       8.59375000E-02  -9.94062126E-02   3.40856798E-02   2.11009402E-02
  0.304687500       8.59375000E-02 -0.109815940       3.52166742E-02   2.06864662E-02
  0.320312500       8.59375000E-02 -0.120139532       3.59633341E-02   2.02600788E-02
  0.335937500       8.59375000E-02 -0.130253196       3.62933204E-02   1.98305994E-02
  0.351562500       8.59375000E-02 -0.140036702       3.61814164E-02   1.94084663E-02
  0.367187500       8.59375000E-02 -0.149375334       3.56098041E-02   1.90055557E-02
  0.382812500       8.59375000E-02 -0.158161491       3.45680453E-02   1.86348744E-02
  0.398437500       8.59375000E-02 -0.166295737       3.30528021E-02   1.83101855E-02
  0.414062500       8.59375000E-02 -0.173687816       3.10674421E-02   1.80455986E-02