 VARIABLES="X","Y","U","V","P"
 ZONE F=POINT, I=          64 , J=          64
   7.81250000E-03   7.81250000E-03   5.65703784E-04   5.78117033E-04  -5.66698909E-02
   2.34375000E-02   7.81250000E-03   1.23945484E-03   1.07211189E-03  -5.82107678E-02
   3.90625000E-02   7.81250000E-03   1.26391451E-03   1.28576264E-03  -5.95077798E-02
   5.46875000E-02   7.81250000E-03   1.01741054E-03   1.37440092E-03  -6.04383685E-02
   7.03125000E-02   7.81250000E-03   6.61081634E-04   1.40434073E-03  -6.10169433E-02
   8.59375000E-02   7.81250000E-03   2.65047944E-04   1.40522048E-03  -6.12782314E-02
  0.101562500       7.81250000E-03  -1.40482443E-04   1.39084319E-03  -6.12536967E-02
  0.117187500       7.81250000E-03  -5.43274451E-04   1.36778469E-03  -6.09671362E-02
  0.132812500       7.81250000E-03  -9.38972109E-04   1.33906968E-03  -6.04350306E-02
  0.148437500       7.81250000E-03  -1.32643757E-03   1.30606198E-03  -5.96689656E-02
  0.164062500       7.81250000E-03  -1.70573406E-03   1.26932596E-03  -5.86772859E-02
  0.179687500       7.81250000E-03  -2.07716110E-03   1.22905918E-03  -5.74662872E-02
  0.195312500       7.81250000E-03  -2.44087540E-03   1.18531089E-03  -5.60411327E-02
  0.210937500       7.81250000E-03  -2.79677426E-03   1.13808853E-03  -5.44064939E-02
  0.226562500       7.81250000E-03  -3.14448937E-03   1.08740595E-03  -5.25669195E-02
  0.242187500       7.81250000E-03  -3.48342257E-03   1.03329832E-03  -5.05271815E-02
  0.257812500       7.81250000E-03  -3.81279271E-03   9.75831586E-04  -4.82924357E-02
  0.273437500       7.81250000E-03  -4.13167570E-03   9.15099983E-04  -4.58683744E-02
  0.289062500       7.81250000E-03  -4.43904474E-03   8.51225224E-04  -4.32613082E-02
  0.304687500       7.81250000E-03  -4.73379716E-03   7.84355681E-04  -4.04782444E-02
  0.320312500       7.81250000E-03  -5.01478184E-03   7.14661554E-04  -3.75269353E-02
  0.335937500       7.81250000E-03  -5.28082252E-03   6.42334810E-04  -3.44158858E-02
  0.351562500       7.81250000E-03  -5.53073734E-03   5.67588140E-04  -3.11543792E-02
  0.367187500       7.81250000E-03  -5.76335937E-03   4.90651058E-04  -2.77524590E-02
  0.382812500       7.81250000E-03  -5.97755425E-03   4.11769288E-04  -2.42209285E-02
  0.398437500       7.81250000E-03  -6.17223885E-03   3.31203511E-04  -2.05712933E-02
  0.414062500       7.81250000E-03  -6.34640362E-03   2.49228149E-04  -1.68157350E-02
  0.429687500       7.81250000E-03  -6.49913307E-03   1.66131460E-04  -1.29670352E-02
  0.445312500       7.81250000E-03  -6.62964722E-03   8.22184447E-05  -9.03849956E-03
  0.460937500       7.81250000E-03  -6.73736073E-03  -2.19129197E-06  -5.04382281E-03
  0.476562500       7.81250000E-03  -6.82178233E-03  -8.68320130E-05  -9.96953575E-04
  0.492187500       7.81250000E-03  -6.88226800E-03  -1.71564927E-04   3.08777299E-03
  0.507812500       7.81250000E-03  -6.91812020E-03  -2.56149971E-04   7.19576189E-03
  0.523437500       7.81250000E-03  -6.92878291E-03  -3.40313883E-04   1.13121206E-02
  0.539062500       7.81250000E-03  -6.91383472E-03  -4.23776801E-04   1.54216755E-02
  0.554687500       7.81250000E-03  -6.87300321E-03  -5.06266719E-04   1.95090994E-02
  0.570312500       7.81250000E-03  -6.80616684E-03  -5.87521761E-04   2.35590264E-02
  0.585937500       7.81250000E-03  -6.71335403E-03  -6.67295186E-04   2.75561735E-02
  0.601562500       7.81250000E-03  -6.59473566E-03  -7.45353522E-04   3.14854309E-02
  0.617187500       7.81250000E-03  -6.45061582E-03  -8.21479887E-04   3.53319459E-02
  0.632812500       7.81250000E-03  -6.28142664E-03  -8.95473990E-04   3.90812159E-02
  0.648437500       7.81250000E-03  -6.08771434E-03  -9.67149099E-04   4.27191630E-02
  0.664062500       7.81250000E-03  -5.87013178E-03  -1.03633606E-03   4.62321714E-02
  0.679687500       7.81250000E-03  -5.62942633E-03  -1.10288151E-03   4.96071689E-02
  0.695312500       7.81250000E-03  -5.36642317E-03  -1.16664986E-03   5.28316423E-02
  0.710937500       7.81250000E-03  -5.08200843E-03  -1.22751959E-03   5.58936894E-02
  0.726562500       7.81250000E-03  -4.77711624E-03  -1.28538592E-03   5.87820224E-02
  0.742187500       7.81250000E-03  -4.45269980E-03  -1.34016399E-03   6.14859685E-02
  0.757812500       7.81250000E-03  -4.10970673E-03  -1.39178522E-03   6.39954582E-02
  0.773437500       7.81250000E-03  -3.74904438E-03  -1.44020258E-03   6.63009882E-02
  0.789062500       7.81250000E-03  -3.37153743E-03  -1.48539140E-03   6.83935508E-02
  0.804687500       7.81250000E-03  -2.97787716E-03  -1.52734737E-03   7.02644959E-02
  0.820312500       7.81250000E-03  -2.56856461E-03  -1.56607968E-03   7.19053969E-02
  0.835937500       7.81250000E-03  -2.14386825E-03  -1.60158810E-03   7.33077005E-02
  0.851562500       7.81250000E-03  -1.70384336E-03  -1.63379253E-03   7.44623393E-02
  0.867187500       7.81250000E-03  -1.24851905E-03  -1.66238949E-03   7.53589794E-02
  0.882812500       7.81250000E-03  -7.78478628E-04  -1.68653019E-03   7.59850591E-02
  0.898437500       7.81250000E-03  -2.96274258E-04  -1.70418946E-03   7.63244778E-02
  0.914062500       7.81250000E-03   1.90441351E-04  -1.71095587E-03   7.63560161E-02
  0.929687500       7.81250000E-03   6.62136299E-04  -1.69755309E-03   7.60514811E-02
  0.945312500       7.81250000E-03   1.07300887E-03  -1.64494675E-03   7.53773078E-02
  0.960937500       7.81250000E-03   1.32158771E-03  -1.51429523E-03   7.43069723E-02
  0.976562500       7.81250000E-03   1.19020429E-03  -1.22531212E-03   7.28719458E-02
  0.992187500       7.81250000E-03   4.96247958E-04  -6.14252174E-04   7.16521963E-02
   7.81250000E-03   2.34375000E-02   8.74164747E-04   1.49766798E-03  -5.77571280E-02
   2.34375000E-02   2.34375000E-02   2.04903213E-03   3.03971907E-03  -5.88528924E-02
   3.90625000E-02   2.34375000E-02   2.29471386E-03   3.81073682E-03  -5.98436333E-02
   5.46875000E-02   2.34375000E-02   1.98772084E-03   4.17560013E-03  -6.05963618E-02
   7.03125000E-02   2.34375000E-02   1.38356257E-03   4.32538427E-03  -6.10764138E-02
   8.59375000E-02   2.34375000E-02   6.32977986E-04   4.36023809E-03  -6.12833537E-02
  0.101562500       2.34375000E-02  -1.81736759E-04   4.33258293E-03  -6.12279139E-02
  0.117187500       2.34375000E-02  -1.01824710E-03   4.26955801E-03  -6.09226227E-02
  0.132812500       2.34375000E-02  -1.85595499E-03   4.18471079E-03  -6.03778325E-02
  0.148437500       2.34375000E-02  -2.68543698E-03   4.08456195E-03  -5.96020259E-02
  0.164062500       2.34375000E-02  -3.50262085E-03   3.97203863E-03  -5.86020537E-02
  0.179687500       2.34375000E-02  -4.30571288E-03   3.84831638E-03  -5.73835187E-02
  0.195312500       2.34375000E-02  -5.09367883E-03   3.71379312E-03  -5.59513085E-02
  0.210937500       2.34375000E-02  -5.86554781E-03   3.56857339E-03  -5.43099940E-02
  0.226562500       2.34375000E-02  -6.62013795E-03   3.41270235E-03  -5.24641499E-02
  0.242187500       2.34375000E-02  -7.35597964E-03   3.24626779E-03  -5.04185818E-02
  0.257812500       2.34375000E-02  -8.07132106E-03   3.06943315E-03  -4.81785201E-02
  0.273437500       2.34375000E-02  -8.76417197E-03   2.88245315E-03  -4.57497165E-02
  0.289062500       2.34375000E-02  -9.43235494E-03   2.68567121E-03  -4.31385562E-02
  0.304687500       2.34375000E-02  -1.00735463E-02   2.47951038E-03  -4.03521135E-02
  0.320312500       2.34375000E-02  -1.06853340E-02   2.26447126E-03  -3.73981856E-02
  0.335937500       2.34375000E-02  -1.12652443E-02   2.04112171E-03  -3.42853330E-02
  0.351562500       2.34375000E-02  -1.18107954E-02   1.81009492E-03  -3.10228970E-02
  0.367187500       2.34375000E-02  -1.23195238E-02   1.57208182E-03  -2.76209526E-02
  0.382812500       2.34375000E-02  -1.27890240E-02   1.32782629E-03  -2.40903292E-02
  0.398437500       2.34375000E-02  -1.32169779E-02   1.07812043E-03  -2.04425640E-02
  0.414062500       2.34375000E-02  -1.36012025E-02   8.23802839E-04  -1.66898426E-02
  0.429687500       2.34375000E-02  -1.39396731E-02   5.65755356E-04  -1.28449565E-02
  0.445312500       2.34375000E-02  -1.42305642E-02   3.04904708E-04  -8.92121345E-03
  0.460937500       2.34375000E-02  -1.44722629E-02   4.22088706E-05  -4.93234815E-03
  0.476562500       2.34375000E-02  -1.46634215E-02  -2.21467315E-04  -8.92344513E-04
  0.492187500       2.34375000E-02  -1.48027120E-02  -4.85640951E-04   3.18477093E-03
  0.507812500       2.34375000E-02  -1.48887541E-02  -7.49596453E-04   7.28442566E-03
  0.523437500       2.34375000E-02  -1.49203613E-02  -1.01250375E-03   1.13917077E-02
  0.539062500       2.34375000E-02  -1.48965782E-02  -1.27349817E-03   1.54914837E-02
  0.554687500       2.34375000E-02  -1.48167256E-02  -1.53172493E-03   1.95685066E-02
  0.570312500       2.34375000E-02  -1.46804238E-02  -1.78635586E-03   2.36074999E-02
  0.585937500       2.34375000E-02  -1.44875888E-02  -2.03660270E-03   2.75932942E-02
  0.601562500       2.34375000E-02  -1.42384358E-02  -2.28171889E-03   3.15108821E-02
  0.617187500       2.34375000E-02  -1.39334667E-02  -2.52100360E-03   3.53455469E-02
  0.632812500       2.34375000E-02  -1.35734566E-02  -2.75380583E-03   3.90829071E-02
  0.648437500       2.34375000E-02  -1.31594390E-02  -2.97951908E-03   4.27090041E-02
  0.664062500       2.34375000E-02  -1.26926862E-02  -3.19759175E-03   4.62103523E-02
  0.679687500       2.34375000E-02  -1.21746883E-02  -3.40751885E-03   4.95739914E-02
  0.695312500       2.34375000E-02  -1.16071254E-02  -3.60885216E-03   5.27875386E-02
  0.710937500       2.34375000E-02  -1.09918313E-02  -3.80119309E-03   5.58391996E-02
  0.726562500       2.34375000E-02  -1.03307702E-02  -3.98419984E-03   5.87177761E-02
  0.742187500       2.34375000E-02  -9.62598436E-03  -4.15758882E-03   6.14127107E-02
  0.757812500       2.34375000E-02  -8.87954701E-03  -4.32114396E-03   6.39140084E-02
  0.773437500       2.34375000E-02  -8.09350703E-03  -4.47471626E-03   6.62122220E-02
  0.789062500       2.34375000E-02  -7.26982206E-03  -4.61822469E-03   6.82984293E-02
  0.804687500       2.34375000E-02  -6.41030492E-03  -4.75164969E-03   7.01640472E-02
  0.820312500       2.34375000E-02  -5.51661057E-03  -4.87498008E-03   7.18007460E-02
  0.835937500       2.34375000E-02  -4.59032040E-03  -4.98808455E-03   7.32001737E-02
  0.851562500       2.34375000E-02  -3.63330496E-03  -5.09040104E-03   7.43536577E-02
  0.867187500       2.34375000E-02  -2.64864857E-03  -5.18025830E-03   7.52518028E-02
  0.882812500       2.34375000E-02  -1.64269772E-03  -5.25352824E-03   7.58839622E-02
  0.898437500       2.34375000E-02  -6.29220332E-04  -5.30105643E-03   7.62378797E-02
  0.914062500       2.34375000E-02   3.62673774E-04  -5.30399336E-03   7.63000771E-02
  0.929687500       2.34375000E-02   1.27450109E-03  -5.22546656E-03   7.60563761E-02
  0.945312500       2.34375000E-02   1.99548504E-03  -4.99604037E-03   7.54975006E-02
  0.960937500       2.34375000E-02   2.33068923E-03  -4.48970636E-03   7.46335015E-02
  0.976562500       2.34375000E-02   1.97140547E-03  -3.48519208E-03   7.35267103E-02
  0.992187500       2.34375000E-02   7.85852491E-04  -1.61534245E-03   7.26776868E-02
   7.81250000E-03   3.90625000E-02   9.19097627E-04   2.11351225E-03  -5.89022525E-02
   2.34375000E-02   3.90625000E-02   2.21906463E-03   4.73374967E-03  -5.97331636E-02
   3.90625000E-02   3.90625000E-02   2.58835359E-03   6.22834824E-03  -6.04902022E-02
   5.46875000E-02   3.90625000E-02   2.31453427E-03   7.01940339E-03  -6.10746369E-02
   7.03125000E-02   3.90625000E-02   1.64408563E-03   7.39193475E-03  -6.14412427E-02
   8.59375000E-02   3.90625000E-02   7.49423751E-04   7.52271619E-03  -6.15724809E-02
  0.101562500       3.90625000E-02  -2.61427311E-04   7.51558691E-03  -6.14651293E-02
  0.117187500       3.90625000E-02  -1.32545491E-03   7.42894877E-03  -6.11222759E-02
  0.132812500       3.90625000E-02  -2.40780646E-03   7.29428232E-03  -6.05481900E-02
  0.148437500       3.90625000E-02  -3.49005358E-03   7.12775812E-03  -5.97477406E-02
  0.164062500       3.90625000E-02  -4.56263684E-03   6.93720067E-03  -5.87257408E-02
  0.179687500       3.90625000E-02  -5.62045723E-03   6.72611780E-03  -5.74866645E-02
  0.195312500       3.90625000E-02  -6.66044094E-03   6.49593025E-03  -5.60348071E-02
  0.210937500       3.90625000E-02  -7.68027361E-03   6.24714792E-03  -5.43744527E-02
  0.226562500       3.90625000E-02  -8.67778808E-03   5.97997103E-03  -5.25100492E-02
  0.242187500       3.90625000E-02  -9.65070352E-03   5.69456723E-03  -5.04464060E-02
  0.257812500       3.90625000E-02  -1.05965305E-02   5.39119449E-03  -4.81887534E-02
  0.273437500       3.90625000E-02  -1.15125645E-02   5.07024769E-03  -4.57429253E-02
  0.289062500       3.90625000E-02  -1.23959137E-02   4.73226514E-03  -4.31153886E-02
  0.304687500       3.90625000E-02  -1.32435421E-02   4.37792577E-03  -4.03132848E-02
  0.320312500       3.90625000E-02  -1.40523128E-02   4.00804356E-03  -3.73445414E-02
  0.335937500       3.90625000E-02  -1.48190306E-02   3.62355402E-03  -3.42177786E-02
  0.351562500       3.90625000E-02  -1.55404862E-02   3.22550815E-03  -3.09424307E-02
  0.367187500       3.90625000E-02  -1.62135027E-02   2.81505985E-03  -2.75286511E-02
  0.382812500       3.90625000E-02  -1.68349687E-02   2.39345850E-03  -2.39873491E-02
  0.398437500       3.90625000E-02  -1.74018890E-02   1.96204172E-03  -2.03301124E-02
  0.414062500       3.90625000E-02  -1.79114118E-02   1.52222812E-03  -1.65691897E-02
  0.429687500       3.90625000E-02  -1.83608774E-02   1.07551110E-03  -1.27174146E-02
  0.445312500       3.90625000E-02  -1.87478401E-02   6.23448694E-04  -8.78814328E-03
  0.460937500       3.90625000E-02  -1.90700833E-02   1.67630933E-04  -4.79517598E-03
  0.476562500       3.90625000E-02  -1.93256252E-02  -2.90420779E-04  -7.52607244E-04
  0.492187500       3.90625000E-02  -1.95126608E-02  -7.49699189E-04   3.32594337E-03
  0.507812500       3.90625000E-02  -1.96295027E-02  -1.20901619E-03   7.42605189E-03
  0.523437500       3.90625000E-02  -1.96746513E-02  -1.66697218E-03   1.15327742E-02
  0.539062500       3.90625000E-02  -1.96468756E-02  -2.12208834E-03   1.56310108E-02
  0.554687500       3.90625000E-02  -1.95452720E-02  -2.57287757E-03   1.97055824E-02
  0.570312500       3.90625000E-02  -1.93693042E-02  -3.01789003E-03   2.37413216E-02
  0.585937500       3.90625000E-02  -1.91187989E-02  -3.45573085E-03   2.77231690E-02
  0.601562500       3.90625000E-02  -1.87939554E-02  -3.88507103E-03   3.16362679E-02
  0.617187500       3.90625000E-02  -1.83953419E-02  -4.30465490E-03   3.54660340E-02
  0.632812500       3.90625000E-02  -1.79238766E-02  -4.71330713E-03   3.91982459E-02
  0.648437500       3.90625000E-02  -1.73808187E-02  -5.10993274E-03   4.28190976E-02
  0.664062500       3.90625000E-02  -1.67677440E-02  -5.49352355E-03   4.63152751E-02
  0.679687500       3.90625000E-02  -1.60865150E-02  -5.86315850E-03   4.96739708E-02
  0.695312500       3.90625000E-02  -1.53392591E-02  -6.21800963E-03   5.28829582E-02
  0.710937500       3.90625000E-02  -1.45283286E-02  -6.55734353E-03   5.59305958E-02
  0.726562500       3.90625000E-02  -1.36562651E-02  -6.88052969E-03   5.88058457E-02
  0.742187500       3.90625000E-02  -1.27257500E-02  -7.18704052E-03   6.14982694E-02
  0.757812500       3.90625000E-02  -1.17395557E-02  -7.47647230E-03   6.39980286E-02
  0.773437500       3.90625000E-02  -1.07004922E-02  -7.74853257E-03   6.62958398E-02
  0.789062500       3.90625000E-02  -9.61137377E-03  -8.00304208E-03   6.83829039E-02
  0.804687500       3.90625000E-02  -8.47500842E-03  -8.23987462E-03   7.02508911E-02
  0.820312500       3.90625000E-02  -7.29430281E-03  -8.45881365E-03   7.18917102E-02
  0.835937500       3.90625000E-02  -6.07256591E-03  -8.65919329E-03   7.32975230E-02
  0.851562500       3.90625000E-02  -4.81426064E-03  -8.83912295E-03   7.44604692E-02
  0.867187500       3.90625000E-02  -3.52662336E-03  -8.99389386E-03   7.53725767E-02
  0.882812500       3.90625000E-02  -2.22281949E-03  -9.11297183E-03   7.60256797E-02
  0.898437500       3.90625000E-02  -9.27669113E-04  -9.17456113E-03   7.64118955E-02
  0.914062500       3.90625000E-02   3.12599237E-04  -9.13640670E-03   7.65249655E-02
  0.929687500       3.90625000E-02   1.41523674E-03  -8.92146956E-03   7.63617828E-02
  0.945312500       3.90625000E-02   2.24073138E-03  -8.39648489E-03   7.59278163E-02
  0.960937500       3.90625000E-02   2.57286453E-03  -7.34612113E-03   7.52479061E-02
  0.976562500       3.90625000E-02   2.11712322E-03  -5.45312511E-03   7.43828863E-02
  0.992187500       3.90625000E-02   8.25510826E-04  -2.31839577E-03   7.37723559E-02
   7.81250000E-03   5.46875000E-02   8.90738738E-04   2.65660509E-03  -6.00675233E-02
   2.34375000E-02   5.46875000E-02   2.17168638E-03   6.29307190E-03  -6.07719161E-02
   3.90625000E-02   5.46875000E-02   2.56725308E-03   8.54167249E-03  -6.13822043E-02
   5.46875000E-02   5.46875000E-02   2.31327489E-03   9.82363336E-03  -6.18372113E-02
   7.03125000E-02   5.46875000E-02   1.62742427E-03   1.04818270E-02  -6.21002950E-02
   8.59375000E-02   5.46875000E-02   6.76311378E-04   1.07566770E-02  -6.21512197E-02
  0.101562500       5.46875000E-02  -4.26125654E-04   1.08023928E-02  -6.19810447E-02
  0.117187500       5.46875000E-02  -1.60753587E-03   1.07117984E-02  -6.15874343E-02
  0.132812500       5.46875000E-02  -2.82436702E-03   1.05381506E-02  -6.09703995E-02
  0.148437500       5.46875000E-02  -4.05143155E-03   1.03103733E-02  -6.01318702E-02
  0.164062500       5.46875000E-02  -5.27435448E-03   1.00433528E-02  -5.90747632E-02
  0.179687500       5.46875000E-02  -6.48475811E-03   9.74432100E-03  -5.78023754E-02
  0.195312500       5.46875000E-02  -7.67736323E-03   9.41655878E-03  -5.63182943E-02
  0.210937500       5.46875000E-02  -8.84835050E-03   9.06147528E-03  -5.46263941E-02
  0.226562500       5.46875000E-02  -9.99448821E-03   8.67970008E-03  -5.27309403E-02
  0.242187500       5.46875000E-02  -1.11126900E-02   8.27163178E-03  -5.06366417E-02
  0.257812500       5.46875000E-02  -1.21998126E-02   7.83770159E-03  -4.83487658E-02
  0.273437500       5.46875000E-02  -1.32525926E-02   7.37848552E-03  -4.58731875E-02
  0.289062500       5.46875000E-02  -1.42676309E-02   6.89473981E-03  -4.32164595E-02
  0.304687500       5.46875000E-02  -1.52414124E-02   6.38741022E-03  -4.03858498E-02
  0.320312500       5.46875000E-02  -1.61703397E-02   5.85763063E-03  -3.73893604E-02
  0.335937500       5.46875000E-02  -1.70507766E-02   5.30670676E-03  -3.42357792E-02
  0.351562500       5.46875000E-02  -1.78790875E-02   4.73610871E-03  -3.09346411E-02
  0.367187500       5.46875000E-02  -1.86516717E-02   4.14745416E-03  -2.74962299E-02
  0.382812500       5.46875000E-02  -1.93650201E-02   3.54250008E-03  -2.39315573E-02
  0.398437500       5.46875000E-02  -2.00157408E-02   2.92312866E-03  -2.02523284E-02
  0.414062500       5.46875000E-02  -2.06006058E-02   2.29133503E-03  -1.64708830E-02
  0.429687500       5.46875000E-02  -2.11165827E-02   1.64921826E-03  -1.26001397E-02
  0.445312500       5.46875000E-02  -2.15608701E-02   9.98956035E-04  -8.65354016E-03
  0.460937500       5.46875000E-02  -2.19309181E-02   3.42761050E-04  -4.64496948E-03
  0.476562500       5.46875000E-02  -2.22243872E-02  -3.17214581E-04  -5.88624622E-04
  0.492187500       5.46875000E-02  -2.24391632E-02  -9.79281846E-04   3.50217964E-03
  0.507812500       5.46875000E-02  -2.25733723E-02  -1.64176174E-03   7.61329569E-03
  0.523437500       5.46875000E-02  -2.26253625E-02  -2.30268296E-03   1.17297573E-02
  0.539062500       5.46875000E-02  -2.25937925E-02  -2.95995222E-03   1.58364866E-02
  0.554687500       5.46875000E-02  -2.24776752E-02  -3.61145055E-03   1.99183710E-02
  0.570312500       5.46875000E-02  -2.22764090E-02  -4.25509922E-03   2.39603445E-02
  0.585937500       5.46875000E-02  -2.19897926E-02  -4.88888286E-03   2.79474743E-02
  0.601562500       5.46875000E-02  -2.16180328E-02  -5.51086944E-03   3.18650454E-02
  0.617187500       5.46875000E-02  -2.11617444E-02  -6.11922890E-03   3.56986374E-02
  0.632812500       5.46875000E-02  -2.06219330E-02  -6.71223318E-03   3.94341946E-02
  0.648437500       5.46875000E-02  -1.99999847E-02  -7.28826970E-03   4.30581048E-02
  0.664062500       5.46875000E-02  -1.92976482E-02  -7.84584414E-03   4.65572178E-02
  0.679687500       5.46875000E-02  -1.85170025E-02  -8.38358700E-03   4.99189310E-02
  0.695312500       5.46875000E-02  -1.76604390E-02  -8.90025310E-03   5.31312078E-02
  0.710937500       5.46875000E-02  -1.67306215E-02  -9.39474069E-03   5.61825894E-02
  0.726562500       5.46875000E-02  -1.57304499E-02  -9.86608956E-03   5.90622276E-02
  0.742187500       5.46875000E-02  -1.46630220E-02  -1.03134904E-02   6.17598891E-02
  0.757812500       5.46875000E-02  -1.35315917E-02  -1.07362894E-02   6.42659217E-02
  0.773437500       5.46875000E-02  -1.23395491E-02  -1.11339819E-02   6.65712580E-02
  0.789062500       5.46875000E-02  -1.10904146E-02  -1.15061756E-02   6.86673597E-02
  0.804687500       5.46875000E-02  -9.78791714E-03  -1.18524488E-02   7.05461875E-02
  0.820312500       5.46875000E-02  -8.43620114E-03  -1.21720489E-02   7.22001269E-02
  0.835937500       5.46875000E-02  -7.04035349E-03  -1.24631971E-02   7.36219287E-02
  0.851562500       5.46875000E-02  -5.60745131E-03  -1.27216810E-02   7.48047382E-02
  0.867187500       5.46875000E-02  -4.14861692E-03  -1.29381306E-02   7.57420585E-02
  0.882812500       5.46875000E-02  -2.68268446E-03  -1.30930822E-02   7.64281005E-02
  0.898437500       5.46875000E-02  -1.24236557E-03  -1.31485434E-02   7.68583640E-02
  0.914062500       5.46875000E-02   1.16226001E-04  -1.30346315E-02   7.70314783E-02
  0.929687500       5.46875000E-02   1.30010466E-03  -1.26309711E-02   7.69505277E-02
  0.945312500       5.46875000E-02   2.16399552E-03  -1.17430445E-02   7.66263008E-02
  0.960937500       5.46875000E-02   2.49940064E-03  -1.00822486E-02   7.60842934E-02
  0.976562500       5.46875000E-02   2.04285374E-03  -7.27369078E-03   7.53715485E-02
  0.992187500       5.46875000E-02   7.90472841E-04  -2.93906499E-03   7.48812631E-02
   7.81250000E-03   7.03125000E-02   8.46743642E-04   3.19975801E-03  -6.13238439E-02
   2.34375000E-02   7.03125000E-02   2.06160406E-03   7.80082680E-03  -6.19668923E-02
   3.90625000E-02   7.03125000E-02   2.42852233E-03   1.07830483E-02  -6.24847785E-02
   5.46875000E-02   7.03125000E-02   2.16389587E-03   1.25669334E-02  -6.28429130E-02
   7.03125000E-02   7.03125000E-02   1.46358693E-03   1.35362148E-02  -6.30167797E-02
   8.59375000E-02   7.03125000E-02   4.82148840E-04   1.39820641E-02  -6.29895926E-02
  0.101562500       7.03125000E-02  -6.69568719E-04   1.41029544E-02  -6.27517551E-02
  0.117187500       7.03125000E-02  -1.91727094E-03   1.40246022E-02  -6.22988008E-02
  0.132812500       7.03125000E-02  -3.21359886E-03   1.38226580E-02  -6.16283640E-02
  0.148437500       7.03125000E-02  -4.52939328E-03   1.35400686E-02  -6.07405193E-02
  0.164062500       7.03125000E-02  -5.84691111E-03   1.32000316E-02  -5.96367419E-02
  0.179687500       7.03125000E-02  -7.15516414E-03   1.28144929E-02  -5.83193488E-02
  0.195312500       7.03125000E-02  -8.44694488E-03   1.23893134E-02  -5.67912646E-02
  0.210937500       7.03125000E-02  -9.71703324E-03   1.19272796E-02  -5.50559983E-02
  0.226562500       7.03125000E-02  -1.09611675E-02   1.14297606E-02  -5.31175882E-02
  0.242187500       7.03125000E-02  -1.21754846E-02   1.08975917E-02  -5.09806760E-02
  0.257812500       7.03125000E-02  -1.33562358E-02   1.03314985E-02  -4.86505255E-02
  0.273437500       7.03125000E-02  -1.44996559E-02   9.73231904E-03  -4.61330712E-02
  0.289062500       7.03125000E-02  -1.56019172E-02   9.10107698E-03  -4.34349738E-02
  0.304687500       7.03125000E-02  -1.66591220E-02   8.43901932E-03  -4.05636318E-02
  0.320312500       7.03125000E-02  -1.76673289E-02   7.74762174E-03  -3.75272036E-02
  0.335937500       7.03125000E-02  -1.86225772E-02   7.02857319E-03  -3.43346223E-02
  0.351562500       7.03125000E-02  -1.95209235E-02   6.28376938E-03  -3.09955832E-02
  0.367187500       7.03125000E-02  -2.03584917E-02   5.51529322E-03  -2.75205374E-02
  0.382812500       7.03125000E-02  -2.11314913E-02   4.72540595E-03  -2.39206441E-02
  0.398437500       7.03125000E-02  -2.18362790E-02   3.91652668E-03  -2.02077534E-02
  0.414062500       7.03125000E-02  -2.24693827E-02   3.09121655E-03  -1.63943376E-02
  0.429687500       7.03125000E-02  -2.30275374E-02   2.25216150E-03  -1.24934362E-02
  0.445312500       7.03125000E-02  -2.35077180E-02   1.40214141E-03  -8.51859991E-03
  0.460937500       7.03125000E-02  -2.39071809E-02   5.43978531E-04  -4.48381016E-03
  0.476562500       7.03125000E-02  -2.42234338E-02  -3.19560611E-04  -4.03349084E-04
  0.492187500       7.03125000E-02  -2.44541727E-02  -1.18607725E-03   3.70967458E-03
  0.507812500       7.03125000E-02  -2.45973654E-02  -2.05336581E-03   7.84146413E-03
  0.523437500       7.03125000E-02  -2.46513151E-02  -2.91888602E-03   1.19770449E-02
  0.539062500       7.03125000E-02  -2.46146563E-02  -3.77994985E-03   1.61013734E-02
  0.554687500       7.03125000E-02  -2.44863965E-02  -4.63383226E-03   2.01994088E-02
  0.570312500       7.03125000E-02  -2.42659450E-02  -5.47784660E-03   2.42561847E-02
  0.585937500       7.03125000E-02  -2.39531361E-02  -6.30937563E-03   2.82569155E-02
  0.601562500       7.03125000E-02  -2.35482249E-02  -7.12590199E-03   3.21870334E-02
  0.617187500       7.03125000E-02  -2.30518952E-02  -7.92502891E-03   3.60323079E-02
  0.632812500       7.03125000E-02  -2.24652477E-02  -8.70448630E-03   3.97788696E-02
  0.648437500       7.03125000E-02  -2.17897817E-02  -9.46214423E-03   4.34133075E-02
  0.664062500       7.03125000E-02  -2.10273862E-02  -1.01960227E-02   4.69226949E-02
  0.679687500       7.03125000E-02  -2.01803111E-02  -1.09042898E-02   5.02946489E-02
  0.695312500       7.03125000E-02  -1.92511417E-02  -1.15852822E-02   5.35173304E-02
  0.710937500       7.03125000E-02  -1.82427745E-02  -1.22375051E-02   5.65795302E-02
  0.726562500       7.03125000E-02  -1.71583798E-02  -1.28596369E-02   5.94706275E-02
  0.742187500       7.03125000E-02  -1.60013773E-02  -1.34505471E-02   6.21806048E-02
  0.757812500       7.03125000E-02  -1.47754140E-02  -1.40092783E-02   6.47000670E-02
  0.773437500       7.03125000E-02  -1.34843625E-02  -1.45350229E-02   6.70202076E-02
  0.789062500       7.03125000E-02  -1.21323671E-02  -1.50270266E-02   6.91328123E-02
  0.804687500       7.03125000E-02  -1.07239783E-02  -1.54843573E-02   7.10302144E-02
  0.820312500       7.03125000E-02  -9.26447660E-03  -1.59053728E-02   7.27052838E-02
  0.835937500       7.03125000E-02  -7.76052196E-03  -1.62866395E-02   7.41514564E-02
  0.851562500       7.03125000E-02  -6.22139312E-03  -1.66208129E-02   7.53628016E-02
  0.867187500       7.03125000E-02  -4.66120895E-03  -1.68927293E-02   7.63341486E-02
  0.882812500       7.03125000E-02  -3.10268835E-03  -1.70726012E-02   7.70614818E-02
  0.898437500       7.03125000E-02  -1.58309250E-03  -1.71049144E-02   7.75426328E-02
  0.914062500       7.03125000E-02  -1.62749697E-04  -1.68917626E-02   7.77787119E-02
  0.929687500       7.03125000E-02   1.06339518E-03  -1.62714329E-02   7.77754337E-02
  0.945312500       7.03125000E-02   1.95395038E-03  -1.49956951E-02   7.75437579E-02
  0.960937500       7.03125000E-02   2.31438270E-03  -1.27170123E-02   7.71045163E-02
  0.976562500       7.03125000E-02   1.90575037E-03  -9.01998021E-03   7.64904991E-02
  0.992187500       7.03125000E-02   7.38581759E-04  -3.54652852E-03   7.60610178E-02
   7.81250000E-03   8.59375000E-02   8.01366288E-04   3.75112938E-03  -6.27204105E-02
   2.34375000E-02   8.59375000E-02   1.93803385E-03   9.28501971E-03  -6.33262992E-02
   3.90625000E-02   8.59375000E-02   2.25218851E-03   1.29733160E-02  -6.37795255E-02
   5.46875000E-02   8.59375000E-02   1.95416762E-03   1.52494945E-02  -6.40615895E-02
   7.03125000E-02   8.59375000E-02   1.22721598E-03   1.65343154E-02  -6.41577393E-02
   8.59375000E-02   8.59375000E-02   2.15847758E-04   1.71623342E-02  -6.40560091E-02
  0.101562500       8.59375000E-02  -9.74214112E-04   1.73707493E-02  -6.37484863E-02
  0.117187500       8.59375000E-02  -2.26994930E-03   1.73154362E-02  -6.32303730E-02
  0.132812500       8.59375000E-02  -3.62310791E-03   1.70934647E-02  -6.24985173E-02
  0.148437500       8.59375000E-02  -5.00267139E-03   1.67618394E-02  -6.15520440E-02
  0.164062500       8.59375000E-02  -6.38888497E-03   1.63525380E-02  -6.03915527E-02
  0.179687500       8.59375000E-02  -7.76895601E-03   1.58827547E-02  -5.90186641E-02
  0.195312500       8.59375000E-02  -9.13419574E-03   1.53614022E-02  -5.74358366E-02
  0.210937500       8.59375000E-02  -1.04782190E-02   1.47930142E-02  -5.56462780E-02
  0.226562500       8.59375000E-02  -1.17958579E-02   1.41799720E-02  -5.36538661E-02
  0.242187500       8.59375000E-02  -1.30825369E-02   1.35237314E-02  -5.14632016E-02
  0.257812500       8.59375000E-02  -1.43339392E-02   1.28254481E-02  -4.90795709E-02
  0.273437500       8.59375000E-02  -1.55458283E-02   1.20863114E-02  -4.65090089E-02
  0.289062500       8.59375000E-02  -1.67139731E-02   1.13076773E-02  -4.37582992E-02
  0.304687500       8.59375000E-02  -1.78341307E-02   1.04911346E-02  -4.08350043E-02
  0.320312500       8.59375000E-02  -1.89020410E-02   9.63852648E-03  -3.77474725E-02
  0.335937500       8.59375000E-02  -1.99134611E-02   8.75194464E-03  -3.45048159E-02
  0.351562500       8.59375000E-02  -2.08641868E-02   7.83372018E-03  -3.11169419E-02
  0.367187500       8.59375000E-02  -2.17500888E-02   6.88640401E-03  -2.75944863E-02
  0.382812500       8.59375000E-02  -2.25671642E-02   5.91275562E-03  -2.39487998E-02
  0.398437500       8.59375000E-02  -2.33115591E-02   4.91572078E-03  -2.01919060E-02
  0.414062500       8.59375000E-02  -2.39796098E-02   3.89841129E-03  -1.63364392E-02