 VARIABLES="X","Y","U","V","P"
 ZONE F=POINT, I=         128 , J=         128
   3.90625000E-03   3.90625000E-03  -1.38857308E-06   1.34977336E-06   3.14724557E-02
   1.17187500E-02   3.90625000E-03   1.59984920E-05  -1.88297163E-05   3.14834751E-02
   1.95312500E-02   3.90625000E-03   7.35645008E-05  -3.88442204E-05   3.14958729E-02
   2.73437500E-02   3.90625000E-03   1.65635094E-04  -5.33365928E-05   3.15028578E-02
   3.51562500E-02   3.90625000E-03   2.80836364E-04  -6.19761558E-05   3.15006971E-02
   4.29687500E-02   3.90625000E-03   4.08364343E-04  -6.56619377E-05   3.14876400E-02
   5.07812500E-02   3.90625000E-03   5.39367145E-04  -6.54498581E-05   3.14631425E-02
   5.85937500E-02   3.90625000E-03   6.67001004E-04  -6.22913212E-05   3.14273760E-02
   6.64062500E-02   3.90625000E-03   7.86166522E-04  -5.69819967E-05   3.13809216E-02
   7.42187500E-02   3.90625000E-03   8.93218210E-04  -5.01785544E-05   3.13245803E-02
   8.20312500E-02   3.90625000E-03   9.85704712E-04  -4.24099744E-05   3.12592387E-02
   8.98437500E-02   3.90625000E-03   1.06211321E-03  -3.41005943E-05   3.11857685E-02
   9.76562500E-02   3.90625000E-03   1.12166489E-03  -2.55600844E-05   3.11049931E-02
  0.105468750       3.90625000E-03   1.16414228E-03  -1.70193689E-05   3.10176257E-02
  0.113281250       3.90625000E-03   1.18969264E-03  -8.63329205E-06   3.09242420E-02
  0.121093750       3.90625000E-03   1.19871437E-03  -4.93492053E-07   3.08253095E-02
  0.128906250       3.90625000E-03   1.19175483E-03   7.35034246E-06   3.07211541E-02
  0.136718750       3.90625000E-03   1.16939039E-03   1.49055741E-05   3.06119807E-02
  0.144531250       3.90625000E-03   1.13217556E-03   2.22005929E-05   3.04978751E-02
  0.152343750       3.90625000E-03   1.08057470E-03   2.92943805E-05   3.03788185E-02
  0.160156250       3.90625000E-03   1.01491343E-03   3.62616775E-05   3.02547254E-02
  0.167968750       3.90625000E-03   9.35348566E-04   4.31998669E-05   3.01254466E-02
  0.175781250       3.90625000E-03   8.41851695E-04   5.01947725E-05   2.99908035E-02
  0.183593750       3.90625000E-03   7.34208501E-04   5.73478064E-05   2.98506021E-02
  0.191406250       3.90625000E-03   6.12037489E-04   6.47228735E-05   2.97046658E-02
  0.199218750       3.90625000E-03   4.74824104E-04   7.23902704E-05   2.95528471E-02
  0.207031250       3.90625000E-03   3.21953907E-04   8.03811126E-05   2.93950383E-02
  0.214843750       3.90625000E-03   1.52726338E-04   8.87481874E-05   2.92311907E-02
  0.222656250       3.90625000E-03  -3.36136654E-05   9.74924042E-05   2.90613454E-02
  0.230468750       3.90625000E-03  -2.37830856E-04   1.06622392E-04   2.88855731E-02
  0.238281250       3.90625000E-03  -4.60714742E-04   1.16155170E-04   2.87040584E-02
  0.246093750       3.90625000E-03  -7.03047146E-04   1.26073355E-04   2.85170525E-02
  0.253906250       3.90625000E-03  -9.65562998E-04   1.36345028E-04   2.83248946E-02
  0.261718750       3.90625000E-03  -1.24892953E-03   1.46926963E-04   2.81280316E-02
  0.269531250       3.90625000E-03  -1.55372394E-03   1.57771836E-04   2.79270038E-02
  0.277343750       3.90625000E-03  -1.88041548E-03   1.68824889E-04   2.77224667E-02
  0.285156250       3.90625000E-03  -2.22935714E-03   1.80024072E-04   2.75151730E-02
  0.292968750       3.90625000E-03  -2.60077324E-03   1.91300249E-04   2.73059923E-02
  0.300781250       3.90625000E-03  -2.99474201E-03   2.02578449E-04   2.70958990E-02
  0.308593750       3.90625000E-03  -3.41119082E-03   2.13779902E-04   2.68859826E-02
  0.316406250       3.90625000E-03  -3.84988543E-03   2.24819683E-04   2.66774483E-02
  0.324218750       3.90625000E-03  -4.31041187E-03   2.35610059E-04   2.64716130E-02
  0.332031250       3.90625000E-03  -4.79216920E-03   2.46055948E-04   2.62698978E-02
  0.339843750       3.90625000E-03  -5.29437419E-03   2.56057043E-04   2.60738265E-02
  0.347656250       3.90625000E-03  -5.81603963E-03   2.65515351E-04   2.58850306E-02
  0.355468750       3.90625000E-03  -6.35597249E-03   2.74324324E-04   2.57052276E-02
  0.363281250       3.90625000E-03  -6.91277254E-03   2.82382127E-04   2.55362149E-02
  0.371093750       3.90625000E-03  -7.48482486E-03   2.89576361E-04   2.53798664E-02
  0.378906250       3.90625000E-03  -8.07029661E-03   2.95800768E-04   2.52381079E-02
  0.386718750       3.90625000E-03  -8.66714120E-03   3.00947693E-04   2.51129158E-02
  0.394531250       3.90625000E-03  -9.27309878E-03   3.04913527E-04   2.50062812E-02
  0.402343750       3.90625000E-03  -9.88570228E-03   3.07593407E-04   2.49202065E-02
  0.410156250       3.90625000E-03  -1.05022714E-02   3.08881776E-04   2.48566810E-02
  0.417968750       3.90625000E-03  -1.11199319E-02   3.08684102E-04   2.48176530E-02
  0.425781250       3.90625000E-03  -1.17356218E-02   3.06908798E-04   2.48050187E-02
  0.433593750       3.90625000E-03  -1.23460926E-02   3.03466688E-04   2.48205811E-02
  0.441406250       3.90625000E-03  -1.29479263E-02   2.98272382E-04   2.48660371E-02
  0.449218750       3.90625000E-03  -1.35375494E-02   2.91256729E-04   2.49429420E-02
  0.457031250       3.90625000E-03  -1.41112488E-02   2.82346562E-04   2.50526816E-02
  0.464843750       3.90625000E-03  -1.46651771E-02   2.71484605E-04   2.51964554E-02
  0.472656250       3.90625000E-03  -1.51953716E-02   2.58617132E-04   2.53752246E-02
  0.480468750       3.90625000E-03  -1.56977829E-02   2.43700633E-04   2.55897064E-02
  0.488281250       3.90625000E-03  -1.61682777E-02   2.26700067E-04   2.58403271E-02
  0.496093750       3.90625000E-03  -1.66026615E-02   2.07590681E-04   2.61272006E-02
  0.503906250       3.90625000E-03  -1.69967078E-02   1.86358593E-04   2.64500827E-02
  0.511718750       3.90625000E-03  -1.73461605E-02   1.63000339E-04   2.68083550E-02
  0.519531250       3.90625000E-03  -1.76467821E-02   1.37527793E-04   2.72009671E-02
  0.527343750       3.90625000E-03  -1.78943798E-02   1.09970424E-04   2.76264064E-02
  0.535156250       3.90625000E-03  -1.80848427E-02   8.03966832E-05   2.80826408E-02
  0.542968750       3.90625000E-03  -1.82143226E-02   4.89882696E-05   2.85670254E-02
  0.550781250       3.90625000E-03  -1.82796158E-02   1.62050128E-05   2.90762093E-02
  0.558593750       3.90625000E-03  -1.82792526E-02  -1.66650098E-05   2.96059642E-02
  0.566406250       3.90625000E-03  -1.82115454E-02  -5.11390135E-05   3.01514715E-02
  0.574218750       3.90625000E-03  -1.80732533E-02  -8.72488527E-05   3.07092890E-02
  0.582031250       3.90625000E-03  -1.78614687E-02  -1.24630693E-04   3.12753171E-02
  0.589843750       3.90625000E-03  -1.75740570E-02  -1.62876328E-04   3.18449959E-02
  0.597656250       3.90625000E-03  -1.72097087E-02  -2.01569303E-04   3.24134007E-02
  0.605468750       3.90625000E-03  -1.67679340E-02  -2.40309309E-04   3.29753347E-02
  0.613281250       3.90625000E-03  -1.62490588E-02  -2.78678519E-04   3.35253924E-02
  0.621093750       3.90625000E-03  -1.56542528E-02  -3.16242280E-04   3.40580493E-02
  0.628906250       3.90625000E-03  -1.49855688E-02  -3.52555420E-04   3.45677473E-02
  0.636718750       3.90625000E-03  -1.42459674E-02  -3.87154665E-04   3.50489765E-02
  0.644531250       3.90625000E-03  -1.34393536E-02  -4.19569493E-04   3.54963690E-02
  0.652343750       3.90625000E-03  -1.25705833E-02  -4.49315994E-04   3.59048247E-02
  0.660156250       3.90625000E-03  -1.16454633E-02  -4.75915760E-04   3.62695903E-02
  0.667968750       3.90625000E-03  -1.06707532E-02  -4.98903566E-04   3.65863703E-02
  0.675781250       3.90625000E-03  -9.65412147E-03  -5.17836714E-04   3.68514508E-02
  0.683593750       3.90625000E-03  -8.60409718E-03  -5.32301085E-04   3.70617732E-02
  0.691406250       3.90625000E-03  -7.52998283E-03  -5.41932182E-04   3.72150503E-02
  0.699218750       3.90625000E-03  -6.44173892E-03  -5.46424708E-04   3.73098217E-02
  0.707031250       3.90625000E-03  -5.34987450E-03  -5.45549032E-04   3.73455249E-02
  0.714843750       3.90625000E-03  -4.26527718E-03  -5.39154978E-04   3.73225436E-02
  0.722656250       3.90625000E-03  -3.19904508E-03  -5.27183060E-04   3.72422040E-02
  0.730468750       3.90625000E-03  -2.16231868E-03  -5.09644684E-04   3.71067971E-02
  0.738281250       3.90625000E-03  -1.16619421E-03  -4.86578560E-04   3.69194970E-02
  0.746093750       3.90625000E-03  -2.21823226E-04  -4.57893068E-04   3.66844013E-02
  0.753906250       3.90625000E-03   6.59133540E-04  -4.23163001E-04   3.64071392E-02
  0.761718750       3.90625000E-03   1.46657135E-03  -3.84372310E-04   3.60943824E-02
  0.769531250       3.90625000E-03   2.19373056E-03  -3.42885352E-04   3.57523002E-02
  0.777343750       3.90625000E-03   2.83573708E-03  -2.99222243E-04   3.53870690E-02
  0.785156250       3.90625000E-03   3.38902045E-03  -2.54159851E-04   3.50050554E-02
  0.792968750       3.90625000E-03   3.85159533E-03  -2.08513651E-04   3.46126407E-02
  0.800781250       3.90625000E-03   4.22313949E-03  -1.63128687E-04   3.42160575E-02
  0.808593750       3.90625000E-03   4.50502522E-03  -1.18852142E-04   3.38212177E-02
  0.816406250       3.90625000E-03   4.70029516E-03  -7.65073783E-05   3.34335715E-02
  0.824218750       3.90625000E-03   4.81355283E-03  -3.68385954E-05   3.30579355E-02
  0.832031250       3.90625000E-03   4.85076103E-03  -4.61368472E-07   3.26983780E-02
  0.839843750       3.90625000E-03   4.81872540E-03   3.24014800E-05   3.23582888E-02
  0.847656250       3.90625000E-03   4.72467951E-03   6.15491881E-05   3.20404544E-02
  0.855468750       3.90625000E-03   4.57617082E-03   8.68687785E-05   3.17466818E-02
  0.863281250       3.90625000E-03   4.38077981E-03   1.08436427E-04   3.14780697E-02
  0.871093750       3.90625000E-03   4.14583925E-03   1.26417915E-04   3.12351305E-02
  0.878906250       3.90625000E-03   3.87831056E-03   1.41026903E-04   3.10179014E-02
  0.886718750       3.90625000E-03   3.58469831E-03   1.52503475E-04   3.08260322E-02
  0.894531250       3.90625000E-03   3.27100419E-03   1.61106582E-04   3.06588933E-02
  0.902343750       3.90625000E-03   2.94274185E-03   1.67073609E-04   3.05156633E-02
  0.910156250       3.90625000E-03   2.60498887E-03   1.70598476E-04   3.03954165E-02
  0.917968750       3.90625000E-03   2.26251269E-03   1.71794571E-04   3.02971937E-02
  0.925781250       3.90625000E-03   1.91997853E-03   1.70652769E-04   3.02200578E-02
  0.933593750       3.90625000E-03   1.58224069E-03   1.66999249E-04   3.01631242E-02
  0.941406250       3.90625000E-03   1.25472620E-03   1.60433687E-04   3.01255323E-02
  0.949218750       3.90625000E-03   9.43917083E-04   1.50295018E-04   3.01063620E-02
  0.957031250       3.90625000E-03   6.57896744E-04   1.35644819E-04   3.01044472E-02
  0.964843750       3.90625000E-03   4.06864216E-04   1.15306335E-04   3.01180407E-02
  0.972656250       3.90625000E-03   2.03330535E-04   8.81465967E-05   3.01442370E-02
  0.980468750       3.90625000E-03   6.11768410E-05   5.39309549E-05   3.01781185E-02
  0.988281250       3.90625000E-03  -8.68980624E-06   1.58583716E-05   3.02115865E-02
  0.996093750       3.90625000E-03  -1.22944930E-05  -1.23180143E-05   3.02324276E-02
   3.90625000E-03   1.17187500E-02   1.87126279E-05  -1.60664076E-05   3.14614475E-02
   1.17187500E-02   1.17187500E-02   9.92633941E-05  -9.95632436E-05   3.14724781E-02
   1.95312500E-02   1.17187500E-02   2.61811569E-04  -1.78466609E-04   3.14814001E-02
   2.73437500E-02   1.17187500E-02   4.92441410E-04  -2.36659413E-04   3.14846784E-02
   3.51562500E-02   1.17187500E-02   7.70474551E-04  -2.72133242E-04   3.14798206E-02
   4.29687500E-02   1.17187500E-02   1.07459049E-03  -2.87394621E-04   3.14654075E-02
   5.07812500E-02   1.17187500E-02   1.38569414E-03  -2.86070135E-04   3.14408392E-02
   5.85937500E-02   1.17187500E-02   1.68791495E-03  -2.71765457E-04   3.14061083E-02
   6.64062500E-02   1.17187500E-02   1.96870230E-03  -2.47697695E-04   3.13615762E-02
   7.42187500E-02   1.17187500E-02   2.21856544E-03  -2.16624481E-04   3.13078389E-02
   8.20312500E-02   1.17187500E-02   2.43068626E-03  -1.80819465E-04   3.12455967E-02
   8.98437500E-02   1.17187500E-02   2.60047661E-03  -1.42132893E-04   3.11755799E-02
   9.76562500E-02   1.17187500E-02   2.72513460E-03  -1.01982208E-04   3.10984738E-02
  0.105468750       1.17187500E-02   2.80324277E-03  -6.14174060E-05   3.10148969E-02
  0.113281250       1.17187500E-02   2.83438712E-03  -2.11643310E-05   3.09253577E-02
  0.121093750       1.17187500E-02   2.81883939E-03   1.83207176E-05   3.08302678E-02
  0.128906250       1.17187500E-02   2.75729294E-03   5.68060350E-05   3.07299457E-02
  0.136718750       1.17187500E-02   2.65063718E-03   9.42327315E-05   3.06245610E-02
  0.144531250       1.17187500E-02   2.49980041E-03   1.30690940E-04   3.05142030E-02
  0.152343750       1.17187500E-02   2.30555050E-03   1.66417129E-04   3.03988643E-02
  0.160156250       1.17187500E-02   2.06838408E-03   2.01722025E-04   3.02784853E-02
  0.167968750       1.17187500E-02   1.78843574E-03   2.37015323E-04   3.01529355E-02
  0.175781250       1.17187500E-02   1.46545121E-03   2.72632722E-04   3.00220661E-02
  0.183593750       1.17187500E-02   1.09877717E-03   3.09007504E-04   2.98857018E-02
  0.191406250       1.17187500E-02   6.87416992E-04   3.46370856E-04   2.97436863E-02
  0.199218750       1.17187500E-02   2.30071804E-04   3.85072199E-04   2.95958966E-02
  0.207031250       1.17187500E-02  -2.74714199E-04   4.25135717E-04   2.94422247E-02
  0.214843750       1.17187500E-02  -8.28459801E-04   4.66749480E-04   2.92826109E-02
  0.222656250       1.17187500E-02  -1.43289485E-03   5.10038983E-04   2.91171409E-02
  0.230468750       1.17187500E-02  -2.08985293E-03   5.55023493E-04   2.89458837E-02
  0.238281250       1.17187500E-02  -2.80111795E-03   6.01676409E-04   2.87689921E-02
  0.246093750       1.17187500E-02  -3.56834149E-03   6.49883004E-04   2.85867061E-02
  0.253906250       1.17187500E-02  -4.39298572E-03   6.99472730E-04   2.83993520E-02
  0.261718750       1.17187500E-02  -5.27626788E-03   7.50225212E-04   2.82073505E-02
  0.269531250       1.17187500E-02  -6.21910952E-03   8.01887014E-04   2.80112159E-02
  0.277343750       1.17187500E-02  -7.22209364E-03   8.54170183E-04   2.78115682E-02
  0.285156250       1.17187500E-02  -8.28543305E-03   9.06751025E-04   2.76091248E-02
  0.292968750       1.17187500E-02  -9.40893777E-03   9.59282450E-04   2.74047181E-02
  0.300781250       1.17187500E-02  -1.05919726E-02   1.01139001E-03   2.71992907E-02
  0.308593750       1.17187500E-02  -1.18334424E-02   1.06267713E-03   2.69938894E-02
  0.316406250       1.17187500E-02  -1.31317675E-02   1.11272780E-03   2.67896708E-02
  0.324218750       1.17187500E-02  -1.44848619E-02   1.16110570E-03   2.65879110E-02
  0.332031250       1.17187500E-02  -1.58901177E-02   1.20736100E-03   2.63899900E-02
  0.339843750       1.17187500E-02  -1.73443966E-02   1.25102478E-03   2.61973888E-02
  0.347656250       1.17187500E-02  -1.88440159E-02   1.29162287E-03   2.60116886E-02
  0.355468750       1.17187500E-02  -2.03847475E-02   1.32867508E-03   2.58345678E-02
  0.363281250       1.17187500E-02  -2.19618324E-02   1.36170164E-03   2.56677754E-02
  0.371093750       1.17187500E-02  -2.35699564E-02   1.39021513E-03   2.55131517E-02
  0.378906250       1.17187500E-02  -2.52032783E-02   1.41373917E-03   2.53725778E-02
  0.386718750       1.17187500E-02  -2.68554389E-02   1.43180648E-03   2.52479929E-02
  0.394531250       1.17187500E-02  -2.85195969E-02   1.44396233E-03   2.51413509E-02
  0.402343750       1.17187500E-02  -3.01884376E-02   1.44976785E-03   2.50546224E-02
  0.410156250       1.17187500E-02  -3.18541825E-02   1.44879927E-03   2.49897726E-02
  0.417968750       1.17187500E-02  -3.35086472E-02   1.44067197E-03   2.49487218E-02
  0.425781250       1.17187500E-02  -3.51432711E-02   1.42501527E-03   2.49333382E-02
  0.433593750       1.17187500E-02  -3.67491469E-02   1.40149309E-03   2.49454081E-02
  0.441406250       1.17187500E-02  -3.83170769E-02   1.36979460E-03   2.49866191E-02
  0.449218750       1.17187500E-02  -3.98375951E-02   1.32966309E-03   2.50585098E-02
  0.457031250       1.17187500E-02  -4.13010344E-02   1.28085888E-03   2.51624677E-02
  0.464843750       1.17187500E-02  -4.26975489E-02   1.22319581E-03   2.52996814E-02
  0.472656250       1.17187500E-02  -4.40171883E-02   1.15652697E-03   2.54711229E-02
  0.480468750       1.17187500E-02  -4.52499539E-02   1.08074467E-03   2.56775115E-02
  0.488281250       1.17187500E-02  -4.63858172E-02   9.95795475E-04   2.59192921E-02
  0.496093750       1.17187500E-02  -4.74148244E-02   9.01674211E-04   2.61965953E-02
  0.503906250       1.17187500E-02  -4.83271480E-02   7.98427442E-04   2.65092012E-02
  0.511718750       1.17187500E-02  -4.91131581E-02   6.86184736E-04   2.68565305E-02
  0.519531250       1.17187500E-02  -4.97635528E-02   5.65152965E-04   2.72375830E-02
  0.527343750       1.17187500E-02  -5.02695143E-02   4.35673224E-04   2.76509151E-02
  0.535156250       1.17187500E-02  -5.06229065E-02   2.98323546E-04   2.80946195E-02
  0.542968750       1.17187500E-02  -5.08167669E-02   1.54186739E-04   2.85662506E-02
  0.550781250       1.17187500E-02  -5.08461744E-02   5.47568561E-06   2.90628709E-02
  0.558593750       1.17187500E-02  -5.07059097E-02  -1.46787454E-04   2.95783654E-02
  0.566406250       1.17187500E-02  -5.03891073E-02  -3.05753318E-04   3.01094614E-02
  0.574218750       1.17187500E-02  -4.98894975E-02  -4.70758328E-04   3.06526478E-02
  0.582031250       1.17187500E-02  -4.92023788E-02  -6.40252896E-04   3.12038586E-02
  0.589843750       1.17187500E-02  -4.83247265E-02  -8.12547631E-04   3.17586437E-02
  0.597656250       1.17187500E-02  -4.72552553E-02  -9.85940453E-04   3.23121771E-02
  0.605468750       1.17187500E-02  -4.59945053E-02  -1.15870032E-03   3.28594148E-02
  0.613281250       1.17187500E-02  -4.45448421E-02  -1.32907473E-03   3.33950855E-02
  0.621093750       1.17187500E-02  -4.29105014E-02  -1.49523770E-03   3.39138024E-02
  0.628906250       1.17187500E-02  -4.10976857E-02  -1.65531202E-03   3.44101489E-02
  0.636718750       1.17187500E-02  -3.91145684E-02  -1.80736312E-03   3.48787680E-02
  0.644531250       1.17187500E-02  -3.69713679E-02  -1.94942718E-03   3.53144482E-02
  0.652343750       1.17187500E-02  -3.46803367E-02  -2.07951758E-03   3.57122272E-02
  0.660156250       1.17187500E-02  -3.22557539E-02  -2.19566585E-03   3.60674970E-02
  0.667968750       1.17187500E-02  -2.97139063E-02  -2.29595462E-03   3.63761112E-02
  0.675781250       1.17187500E-02  -2.70730145E-02  -2.37855199E-03   3.66344936E-02
  0.683593750       1.17187500E-02  -2.43531112E-02  -2.44175736E-03   3.68397050E-02
  0.691406250       1.17187500E-02  -2.15758942E-02  -2.48406036E-03   3.69895734E-02
  0.699218750       1.17187500E-02  -1.87645070E-02  -2.50417576E-03   3.70827317E-02
  0.707031250       1.17187500E-02  -1.59433056E-02  -2.50110496E-03   3.71187069E-02
  0.714843750       1.17187500E-02  -1.31375547E-02  -2.47417972E-03   3.70979309E-02
  0.722656250       1.17187500E-02  -1.03731044E-02  -2.42307363E-03   3.70217711E-02
  0.730468750       1.17187500E-02  -7.67601840E-03  -2.34779483E-03   3.68925296E-02
  0.738281250       1.17187500E-02  -5.07222069E-03  -2.24857172E-03   3.67133878E-02
  0.746093750       1.17187500E-02  -2.58715404E-03  -2.12555961E-03   3.64883654E-02
  0.753906250       1.17187500E-02  -2.45455536E-04  -1.97837315E-03   3.62222269E-02
  0.761718750       1.17187500E-02   1.92610524E-03  -1.80838793E-03   3.59234884E-02
  0.769531250       1.17187500E-02   3.90477804E-03  -1.62493205E-03   3.55969630E-02
  0.777343750       1.17187500E-02   5.67648094E-03  -1.43110589E-03   3.52481678E-02
  0.785156250       1.17187500E-02   7.23097287E-03  -1.23025989E-03   3.48832458E-02
  0.792968750       1.17187500E-02   8.56161863E-03  -1.02584378E-03   3.45083214E-02
  0.800781250       1.17187500E-02   9.66549478E-03  -8.21430935E-04   3.41293588E-02
  0.808593750       1.17187500E-02   1.05435392E-02  -6.20690000E-04   3.37519869E-02
  0.816406250       1.17187500E-02   1.12005714E-02  -4.27175371E-04   3.33813950E-02
  0.824218750       1.17187500E-02   1.16450973E-02  -2.44147901E-04   3.30221541E-02
  0.832031250       1.17187500E-02   1.18889455E-02  -7.43995697E-05   3.26781683E-02
  0.839843750       1.17187500E-02   1.19469948E-02   8.01201677E-05   3.23524103E-02
  0.847656250       1.17187500E-02   1.18359393E-02   2.18721703E-04   3.20477039E-02
  0.855468750       1.17187500E-02   1.15732253E-02   3.40716855E-04   3.17658000E-02
  0.863281250       1.17187500E-02   1.11768516E-02   4.46160091E-04   3.15077230E-02
  0.871093750       1.17187500E-02   1.06647937E-02   5.35502099E-04   3.12739611E-02
  0.878906250       1.17187500E-02   1.00546274E-02   6.09445793E-04   3.10645588E-02
  0.886718750       1.17187500E-02   9.36327316E-03   6.68861729E-04   3.08791995E-02
  0.894531250       1.17187500E-02   8.60683434E-03   7.14691996E-04   3.07172909E-02
  0.902343750       1.17187500E-02   7.80056836E-03   7.47828104E-04   3.05780470E-02
  0.910156250       1.17187500E-02   6.95898756E-03   7.68991071E-04   3.04605700E-02
  0.917968750       1.17187500E-02   6.09610230E-03   7.78571586E-04   3.03639024E-02
  0.925781250       1.17187500E-02   5.22584375E-03   7.76475761E-04   3.02870832E-02
  0.933593750       1.17187500E-02   4.36263438E-03   7.61937117E-04   3.02291475E-02
  0.941406250       1.17187500E-02   3.52210598E-03   7.33352674E-04   3.01891249E-02
  0.949218750       1.17187500E-02   2.72192690E-03   6.88181492E-04   3.01659517E-02
  0.957031250       1.17187500E-02   1.98252592E-03   6.22992346E-04   3.01583111E-02
  0.964843750       1.17187500E-02   1.32746296E-03   5.33859886E-04   3.01644243E-02
  0.972656250       1.17187500E-02   7.82787916E-04   4.17615491E-04   3.01816650E-02
  0.980468750       1.17187500E-02   3.74161493E-04   2.75056984E-04   3.02061439E-02
  0.988281250       1.17187500E-02   1.19785531E-04   1.18788790E-04   3.02323587E-02
  0.996093750       1.17187500E-02   1.63315399E-05  -8.34157981E-06   3.02532725E-02
   3.90625000E-03   1.95312500E-02   3.87608925E-05  -7.36476941E-05   3.14490162E-02
   1.17187500E-02   1.95312500E-02   1.78397924E-04  -2.62410525E-04   3.14635709E-02
   1.95312500E-02   1.95312500E-02   4.29516280E-04  -4.29554668E-04   3.14725041E-02
   2.73437500E-02   1.95312500E-02   7.65617238E-04  -5.52580284E-04   3.14745083E-02
   3.51562500E-02   1.95312500E-02   1.15888473E-03  -6.27792848E-04   3.14683281E-02
   4.29687500E-02   1.95312500E-02   1.58201298E-03  -6.59248850E-04   3.14531103E-02
   5.07812500E-02   1.95312500E-02   2.01012567E-03  -6.53702184E-04   3.14284600E-02
   5.85937500E-02   1.95312500E-02   2.42188876E-03  -6.18382706E-04   3.13943923E-02
   6.64062500E-02   1.95312500E-02   2.79984809E-03  -5.60096698E-04   3.13512012E-02
   7.42187500E-02   1.95312500E-02   3.13033909E-03  -4.84854507E-04   3.12993936E-02
   8.20312500E-02   1.95312500E-02   3.40312184E-03  -3.97771713E-04   3.12395543E-02
   8.98437500E-02   1.95312500E-02   3.61090666E-03  -3.03038774E-04   3.11723202E-02
   9.76562500E-02   1.95312500E-02   3.74885928E-03  -2.03964795E-04   3.10982913E-02
  0.105468750       1.95312500E-02   3.81406583E-03  -1.03020953E-04   3.10180094E-02
  0.113281250       1.95312500E-02   3.80505202E-03  -1.95224675E-06   3.09319273E-02
  0.121093750       1.95312500E-02   3.72135360E-03   9.80868354E-05   3.08404155E-02
  0.128906250       1.95312500E-02   3.56324622E-03   1.96424051E-04   3.07437312E-02
  0.136718750       1.95312500E-02   3.33142653E-03   2.92817247E-04   3.06420363E-02
  0.144531250       1.95312500E-02   3.02668195E-03   3.87419568E-04   3.05354167E-02
  0.152343750       1.95312500E-02   2.64962460E-03   4.80728748E-04   3.04238573E-02
  0.160156250       1.95312500E-02   2.20055785E-03   5.73373691E-04   3.03072985E-02
  0.167968750       1.95312500E-02   1.67931267E-03   6.66295411E-04   3.01855989E-02
  0.175781250       1.95312500E-02   1.08527229E-03   7.60122319E-04   3.00586447E-02
  0.183593750       1.95312500E-02   4.17303207E-04   8.55912687E-04   2.99262349E-02
  0.191406250       1.95312500E-02  -3.26022564E-04   9.53902374E-04   2.97882427E-02
  0.199218750       1.95312500E-02  -1.14612724E-03   1.05474144E-03   2.96444315E-02
  0.207031250       1.95312500E-02  -2.04492314E-03   1.15880626E-03   2.94948593E-02
  0.214843750       1.95312500E-02  -3.02476110E-03   1.26641942E-03   2.93394513E-02
  0.222656250       1.95312500E-02  -4.08800831E-03   1.37779885E-03   2.91782226E-02
  0.230468750       1.95312500E-02  -5.23694325E-03   1.49291009E-03   2.90112440E-02
  0.238281250       1.95312500E-02  -6.47367816E-03   1.61154778E-03   2.88386531E-02
  0.246093750       1.95312500E-02  -7.80004170E-03   1.73335592E-03   2.86606699E-02
  0.253906250       1.95312500E-02  -9.21749137E-03   1.85784756E-03   2.84775980E-02
  0.261718750       1.95312500E-02  -1.07270330E-02   1.98442163E-03   2.82898266E-02
  0.269531250       1.95312500E-02  -1.23291314E-02   2.11238395E-03   2.80978400E-02
  0.277343750       1.95312500E-02  -1.40236672E-02   2.24095443E-03   2.79022194E-02
  0.285156250       1.95312500E-02  -1.58098787E-02   2.36928090E-03   2.77036503E-02
  0.292968750       1.95312500E-02  -1.76863130E-02   2.49644881E-03   2.75029242E-02
  0.300781250       1.95312500E-02  -1.96507834E-02   2.62148771E-03   2.73009464E-02
  0.308593750       1.95312500E-02  -2.17003431E-02   2.74337153E-03   2.70987153E-02
  0.316406250       1.95312500E-02  -2.38312725E-02   2.86104553E-03   2.68973522E-02
  0.324218750       1.95312500E-02  -2.60390453E-02   2.97341100E-03   2.66980994E-02
  0.332031250       1.95312500E-02  -2.83183232E-02   3.07934661E-03   2.65022852E-02
  0.339843750       1.95312500E-02  -3.06629613E-02   3.17771826E-03   2.63113603E-02
  0.347656250       1.95312500E-02  -3.30660231E-02   3.26737482E-03   2.61268727E-02
  0.355468750       1.95312500E-02  -3.55197713E-02   3.34717310E-03   2.59504635E-02
  0.363281250       1.95312500E-02  -3.80157009E-02   3.41597758E-03   2.57838555E-02
  0.371093750       1.95312500E-02  -4.05445546E-02   3.47267184E-03   2.56288573E-02
  0.378906250       1.95312500E-02  -4.30963710E-02   3.51617811E-03   2.54873298E-02
  0.386718750       1.95312500E-02  -4.56605181E-02   3.54544865E-03   2.53611933E-02
  0.394531250       1.95312500E-02  -4.82257530E-02   3.55948554E-03   2.52523888E-02
  0.402343750       1.95312500E-02  -5.07802591E-02   3.55734280E-03   2.51628719E-02
  0.410156250       1.95312500E-02  -5.33117019E-02   3.53816105E-03   2.50946060E-02
  0.417968750       1.95312500E-02  -5.58073074E-02   3.50113469E-03   2.50495039E-02
  0.425781250       1.95312500E-02  -5.82538992E-02   3.44553357E-03   2.50294413E-02
  0.433593750       1.95312500E-02  -6.06380105E-02   3.37072276E-03   2.50362121E-02
  0.441406250       1.95312500E-02  -6.29459247E-02   3.27615859E-03   2.50715166E-02
  0.449218750       1.95312500E-02  -6.51637390E-02   3.16138705E-03   2.51369029E-02
  0.457031250       1.95312500E-02  -6.72774538E-02   3.02604912E-03   2.52337903E-02
  0.464843750       1.95312500E-02  -6.92730695E-02   2.86989380E-03   2.53633894E-02
  0.472656250       1.95312500E-02  -7.11366385E-02   2.69278884E-03   2.55266968E-02
  0.480468750       1.95312500E-02  -7.28543401E-02   2.49469653E-03   2.57244743E-02
  0.488281250       1.95312500E-02  -7.44125843E-02   2.27570976E-03   2.59571970E-02
  0.496093750       1.95312500E-02  -7.57981241E-02   2.03605276E-03   2.62250416E-02
  0.503906250       1.95312500E-02  -7.69980997E-02   1.77610153E-03   2.65278555E-02
  0.511718750       1.95312500E-02  -7.80002326E-02   1.49642653E-03   2.68651098E-02
  0.519531250       1.95312500E-02  -7.87929744E-02   1.19782228E-03   2.72358917E-02
  0.527343750       1.95312500E-02  -7.93657005E-02   8.81435233E-04   2.76388675E-02
  0.535156250       1.95312500E-02  -7.97089413E-02   5.48933458E-04   2.80722864E-02
  0.542968750       1.95312500E-02  -7.98146576E-02   2.02901734E-04   2.85339542E-02
  0.550781250       1.95312500E-02  -7.96770155E-02  -1.51726417E-04   2.90199257E-02
  0.558593750       1.95312500E-02  -7.92873949E-02  -5.19728928E-04   2.95232721E-02
  0.566406250       1.95312500E-02  -7.86359906E-02  -9.01274849E-04   3.00428011E-02
  0.574218750       1.95312500E-02  -7.77172297E-02  -1.29386375E-03   3.05746831E-02
  0.582031250       1.95312500E-02  -7.65275955E-02  -1.69415423E-03   3.11147943E-02
  0.589843750       1.95312500E-02  -7.50656053E-02  -2.09855428E-03   3.16586979E-02
  0.597656250       1.95312500E-02  -7.33318627E-02  -2.50339578E-03   3.22016440E-02
  0.605468750       1.95312500E-02  -7.13292211E-02  -2.90490617E-03   3.27386186E-02
  0.613281250       1.95312500E-02  -6.90627769E-02  -3.29923304E-03   3.32644507E-02
  0.621093750       1.95312500E-02  -6.65400475E-02  -3.68240452E-03   3.37738246E-02
  0.628906250       1.95312500E-02  -6.37709573E-02  -4.05033538E-03   3.42614017E-02
  0.636718750       1.95312500E-02  -6.07678406E-02  -4.39884886E-03   3.47218923E-02
  0.644531250       1.95312500E-02  -5.75455613E-02  -4.72370721E-03   3.51501554E-02
  0.652343750       1.95312500E-02  -5.41214570E-02  -5.02065616E-03   3.55413109E-02
  0.660156250       1.95312500E-02  -5.05153537E-02  -5.28548704E-03   3.58908102E-02
  0.667968750       1.95312500E-02  -4.67495173E-02  -5.51409228E-03   3.61945741E-02
  0.675781250       1.95312500E-02  -4.28485535E-02  -5.70253842E-03   3.64490859E-02
  0.683593750       1.95312500E-02  -3.88393179E-02  -5.84717980E-03   3.66514623E-02
  0.691406250       1.95312500E-02  -3.47507149E-02  -5.94472885E-03   3.67995873E-02
  0.699218750       1.95312500E-02  -3.06135155E-02  -5.99235855E-03   3.68921310E-02
  0.707031250       1.95312500E-02  -2.64600888E-02  -5.98781649E-03   3.69286537E-02