 VARIABLES = "X", "Y", "U", "V", "P"
 ZONE F=POINT, I=          40 , J=          40
   1.25000002E-02   1.25000002E-02   5.17568806E-05  -5.19181885E-05   1.32946400E-02
   3.75000015E-02   1.25000002E-02   1.28333792E-04  -2.50333160E-05   1.31694581E-02
   6.25000000E-02   1.25000002E-02   1.01914513E-04   5.10342325E-05   1.28808487E-02
   8.75000060E-02   1.25000002E-02  -8.55297403E-05   1.36009767E-04   1.25041455E-02
  0.112500004       1.25000002E-02  -4.34898393E-04   2.12976811E-04   1.21045448E-02
  0.137500003       1.25000002E-02  -9.24286491E-04   2.76046194E-04   1.17295701E-02
  0.162500009       1.25000002E-02  -1.52487226E-03   3.24189314E-04   1.14110494E-02
  0.187500000       1.25000002E-02  -2.20777187E-03   3.58372228E-04   1.11691123E-02
  0.212500006       1.25000002E-02  -2.94667901E-03   3.80206155E-04   1.10158715E-02
  0.237500012       1.25000002E-02  -3.71852284E-03   3.91314679E-04   1.09582916E-02
  0.262499988       1.25000002E-02  -4.50320356E-03   3.93046648E-04   1.10001909E-02
  0.287499994       1.25000002E-02  -5.28294779E-03   3.86380649E-04   1.11435065E-02
  0.312500000       1.25000002E-02  -6.04157522E-03   3.71929462E-04   1.13889491E-02
  0.337500006       1.25000002E-02  -6.76383730E-03   3.50011978E-04   1.17362086E-02
  0.362499982       1.25000002E-02  -7.43492227E-03   3.20745545E-04   1.21838171E-02
  0.387499988       1.25000002E-02  -8.04015622E-03   2.84152513E-04   1.27287880E-02
  0.412499994       1.25000002E-02  -8.56492110E-03   2.40266410E-04   1.33661516E-02
  0.437500000       1.25000002E-02  -8.99476930E-03   1.89222861E-04   1.40884295E-02
  0.462500006       1.25000002E-02  -9.31570679E-03   1.31342516E-04   1.48851238E-02
  0.487499982       1.25000002E-02  -9.51464288E-03   6.72039168E-05   1.57422628E-02
  0.512499988       1.25000002E-02  -9.58001986E-03  -2.23462484E-06   1.66419558E-02
  0.537500024       1.25000002E-02  -9.50302370E-03  -7.51893385E-05   1.75606292E-02
  0.562500000       1.25000002E-02  -9.27856378E-03  -1.49714091E-04   1.84721723E-02
  0.587499976       1.25000002E-02  -8.90581403E-03  -2.23496812E-04   1.93496719E-02
  0.612500012       1.25000002E-02  -8.38902872E-03  -2.93765974E-04   2.01650038E-02
  0.637499988       1.25000002E-02  -7.73834949E-03  -3.57403362E-04   2.08901186E-02
  0.662500024       1.25000002E-02  -6.97031058E-03  -4.11135668E-04   2.14987081E-02
  0.687500000       1.25000002E-02  -6.10792264E-03  -4.51758213E-04   2.19680965E-02
  0.712499976       1.25000002E-02  -5.18027507E-03  -4.76396817E-04   2.22811587E-02
  0.737500012       1.25000002E-02  -4.22160281E-03  -4.82779578E-04   2.24281326E-02
  0.762499988       1.25000002E-02  -3.26982653E-03  -4.69493476E-04   2.24081017E-02
  0.787500024       1.25000002E-02  -2.36461172E-03  -4.36207047E-04   2.22300142E-02
  0.812500000       1.25000002E-02  -1.54504832E-03  -3.83827195E-04   2.19131149E-02
  0.837499976       1.25000002E-02  -8.47073912E-04  -3.14601872E-04   2.14867983E-02
  0.862500012       1.25000002E-02  -3.00695450E-04  -2.32214079E-04   2.09899433E-02
  0.887499988       1.25000002E-02   7.31116525E-05  -1.42015924E-04   2.04698667E-02
  0.912500024       1.25000002E-02   2.66447139E-04  -5.17309491E-05   1.99808385E-02
  0.937500000       1.25000002E-02   2.91009346E-04   2.67676533E-05   1.95817053E-02
  0.962499976       1.25000002E-02   1.89917686E-04   7.39269017E-05   1.93299241E-02
  0.987500012       1.25000002E-02   5.78960389E-05   5.77715036E-05   1.92644298E-02
   1.25000002E-02   3.75000015E-02   2.57508127E-05  -1.29805470E-04   1.34199653E-02
   3.75000015E-02   3.75000015E-02  -2.91977758E-05   3.03637007E-05   1.32931583E-02
   6.25000000E-02   3.75000015E-02  -3.64817883E-04   3.56727891E-04   1.30508952E-02
   8.75000060E-02   3.75000015E-02  -1.06477295E-03   7.16803013E-04   1.27448281E-02
  0.112500004       3.75000015E-02  -2.13201786E-03   1.04792172E-03   1.24207139E-02
  0.137500003       3.75000015E-02  -3.52667365E-03   1.32430310E-03   1.21146403E-02
  0.162500009       3.75000015E-02  -5.18970750E-03   1.53873989E-03   1.18528446E-02
  0.187500000       3.75000015E-02  -7.05658132E-03   1.69280951E-03   1.16533255E-02
  0.212500006       3.75000015E-02  -9.06430278E-03   1.79163204E-03   1.15279257E-02
  0.237500012       3.75000015E-02  -1.11544207E-02   1.84109854E-03   1.14842001E-02
  0.262499988       3.75000015E-02  -1.32736862E-02   1.84646761E-03   1.15268631E-02
  0.287499994       3.75000015E-02  -1.53735122E-02   1.81179284E-03   1.16587486E-02
  0.312500000       3.75000015E-02  -1.74089298E-02   1.73982489E-03   1.18813533E-02
  0.337500006       3.75000015E-02  -1.93375163E-02   1.63222011E-03   1.21950014E-02
  0.362499982       3.75000015E-02  -2.11185403E-02   1.48989272E-03   1.25987604E-02
  0.387499988       3.75000015E-02  -2.27125026E-02   1.31343259E-03   1.30901542E-02
  0.412499994       3.75000015E-02  -2.40810905E-02   1.10354519E-03   1.36647765E-02
  0.437500000       3.75000015E-02  -2.51875613E-02   8.61444336E-04   1.43158752E-02
  0.462500006       3.75000015E-02  -2.59975605E-02   5.89209667E-04   1.50339212E-02
  0.487499982       3.75000015E-02  -2.64802873E-02   2.90120661E-04   1.58062968E-02
  0.512499988       3.75000015E-02  -2.66100559E-02  -3.09219649E-05   1.66171230E-02
  0.537500024       3.75000015E-02  -2.63680518E-02  -3.66457389E-04   1.74438506E-02
  0.562500000       3.75000015E-02  -2.57442296E-02  -7.07721338E-04   1.82627849E-02
  0.587499976       3.75000015E-02  -2.47393660E-02  -1.04413449E-03   1.90500207E-02
  0.612500012       3.75000015E-02  -2.33670175E-02  -1.36332191E-03   1.97806321E-02
  0.637499988       3.75000015E-02  -2.16550250E-02  -1.65160629E-03   2.04299353E-02
  0.662500024       3.75000015E-02  -1.96463391E-02  -1.89476321E-03   2.09750421E-02
  0.687500000       3.75000015E-02  -1.73990168E-02  -2.07896228E-03   2.13965252E-02
  0.712499976       3.75000015E-02  -1.49851292E-02  -2.19185348E-03   2.16801018E-02
  0.737500012       3.75000015E-02  -1.24885272E-02  -2.22371658E-03   2.18181852E-02
  0.762499988       3.75000015E-02  -1.00013865E-02  -2.16857763E-03   2.18110923E-02
  0.787500024       3.75000015E-02  -7.61961332E-03  -2.02519190E-03   2.16678157E-02
  0.812500000       3.75000015E-02  -5.43725770E-03  -1.79781229E-03   2.14062184E-02
  0.837499976       3.75000015E-02  -3.54013126E-03  -1.49673503E-03   2.10526586E-02
  0.862500012       3.75000015E-02  -1.99878728E-03  -1.13878795E-03   2.06410680E-02
  0.887499988       3.75000015E-02  -8.60789849E-04  -7.48201215E-04   2.02115346E-02
  0.912500024       3.75000015E-02  -1.41849232E-04  -3.58750811E-04   1.98083762E-02
  0.937500000       3.75000015E-02   1.85075973E-04  -1.86072739E-05   1.94774624E-02
  0.962499976       3.75000015E-02   2.04041513E-04   2.00530922E-04   1.92622319E-02
  0.987500012       3.75000015E-02   7.55576984E-05   1.90923864E-04   1.91990025E-02
   1.25000002E-02   6.25000000E-02  -5.22845839E-05  -1.03709397E-04   1.37136485E-02
   3.75000015E-02   6.25000000E-02  -3.67114990E-04   3.73066578E-04   1.35323936E-02
   6.25000000E-02   6.25000000E-02  -1.15132588E-03   1.13278814E-03   1.32845324E-02
   8.75000060E-02   6.25000000E-02  -2.46064481E-03   1.94898294E-03   1.30026685E-02
  0.112500004       6.25000000E-02  -4.28120652E-03   2.70254887E-03   1.27169359E-02
  0.137500003       6.25000000E-02  -6.55585993E-03   3.33801797E-03   1.24523407E-02
  0.162500009       6.25000000E-02  -9.20468103E-03   3.83594306E-03   1.22280726E-02
  0.187500000       6.25000000E-02  -1.21390251E-02   4.19591321E-03   1.20580569E-02
  0.212500006       6.25000000E-02  -1.52699910E-02   4.42632474E-03   1.19520668E-02
  0.237500012       6.25000000E-02  -1.85127314E-02   4.53838939E-03   1.19168311E-02
  0.262499988       6.25000000E-02  -2.17880085E-02   4.54285741E-03   1.19569935E-02
  0.287499994       6.25000000E-02  -2.50221342E-02   4.44849953E-03   1.20757278E-02
  0.312500000       6.25000000E-02  -2.81461496E-02   4.26169764E-03   1.22751016E-02
  0.337500006       6.25000000E-02  -3.10948305E-02   3.98675073E-03   1.25561245E-02
  0.362499982       6.25000000E-02  -3.38058732E-02   3.62656172E-03   1.29186288E-02
  0.387499988       6.25000000E-02  -3.62195447E-02   3.18351574E-03   1.33609977E-02
  0.412499994       6.25000000E-02  -3.82788032E-02   2.66040745E-03   1.38797630E-02
  0.437500000       6.25000000E-02  -3.99299935E-02   2.06132070E-03   1.44692510E-02
  0.462500006       6.25000000E-02  -4.11240309E-02   1.39241619E-03   1.51211955E-02
  0.487499982       6.25000000E-02  -4.18180302E-02   6.62662147E-04   1.58244781E-02
  0.512499988       6.25000000E-02  -4.19772901E-02  -1.15452531E-04   1.65650323E-02
  0.537500024       6.25000000E-02  -4.15772870E-02  -9.24982072E-04   1.73208248E-02
  0.562500000       6.25000000E-02  -4.06062305E-02  -1.74516800E-03   1.80700496E-02
  0.587499976       6.25000000E-02  -3.90679613E-02  -2.55094282E-03   1.87908467E-02
  0.612500012       6.25000000E-02  -3.69845182E-02  -3.31346295E-03   1.94603354E-02
  0.637499988       6.25000000E-02  -3.43979225E-02  -4.00123419E-03   2.00558566E-02
  0.662500024       6.25000000E-02  -3.13712060E-02  -4.58173547E-03   2.05564499E-02
  0.687500000       6.25000000E-02  -2.79882476E-02  -5.02348039E-03   2.09444202E-02
  0.712499976       6.25000000E-02  -2.43522860E-02  -5.29840216E-03   2.12069228E-02
  0.737500012       6.25000000E-02  -2.05828585E-02  -5.38441213E-03   2.13373695E-02
  0.762499988       6.25000000E-02  -1.68111175E-02  -5.26796095E-03   2.13364922E-02
  0.787500024       6.25000000E-02  -1.31735317E-02  -4.94633988E-03   2.12129429E-02
  0.812500000       6.25000000E-02  -9.80410539E-03  -4.42959182E-03   2.09833011E-02
  0.837499976       6.25000000E-02  -6.82536326E-03  -3.74193583E-03   2.06714682E-02
  0.862500012       6.25000000E-02  -4.33844887E-03  -2.92292610E-03   2.03074906E-02
  0.887499988       6.25000000E-02  -2.41258321E-03  -2.02897843E-03   1.99258905E-02
  0.912500024       6.25000000E-02  -1.07410713E-03  -1.13641855E-03   1.95636079E-02
  0.937500000       6.25000000E-02  -2.95219972E-04  -3.47759429E-04   1.92576442E-02
  0.962499976       6.25000000E-02   1.75688656E-05   1.96932524E-04   1.90426540E-02
  0.987500012       6.25000000E-02   3.67984430E-05   3.02929024E-04   1.89496782E-02
   1.25000002E-02   8.75000060E-02  -1.46369755E-04   9.45014544E-05   1.41051440E-02
   3.75000015E-02   8.75000060E-02  -7.70500221E-04   1.11282326E-03   1.38380220E-02
   6.25000000E-02   8.75000060E-02  -2.06990726E-03   2.47556530E-03   1.35510555E-02
   8.75000060E-02   8.75000060E-02  -4.04313160E-03   3.88769573E-03   1.32614933E-02
  0.112500004       8.75000060E-02  -6.64201239E-03   5.18225506E-03   1.29865790E-02
  0.137500003       8.75000060E-02  -9.78536531E-03   6.27532508E-03   1.27413068E-02
  0.162500009       8.75000060E-02  -1.33729419E-02   7.13406969E-03   1.25376377E-02
  0.187500000       8.75000060E-02  -1.72965564E-02   7.75480410E-03   1.23846494E-02
  0.212500006       8.75000060E-02  -2.14475933E-02   8.14850908E-03   1.22890910E-02
  0.237500012       8.75000060E-02  -2.57212333E-02   8.33167508E-03   1.22560319E-02
  0.262499988       8.75000060E-02  -3.00182775E-02   8.32099281E-03   1.22894067E-02
  0.287499994       8.75000060E-02  -3.42453755E-02   8.13069940E-03   1.23923421E-02
  0.312500000       8.75000060E-02  -3.83144990E-02   7.77175045E-03   1.25673078E-02
  0.337500006       8.75000060E-02  -4.21421602E-02   7.25215347E-03   1.28160277E-02
  0.362499982       8.75000060E-02  -4.56488580E-02   6.57800399E-03   1.31392591E-02
  0.387499988       8.75000060E-02  -4.87588793E-02   5.75486664E-03   1.35364681E-02
  0.412499994       8.75000060E-02  -5.14007136E-02   4.78923880E-03   1.40054077E-02
  0.437500000       8.75000060E-02  -5.35079502E-02   3.68998898E-03   1.45417247E-02
  0.462500006       8.75000060E-02  -5.50207384E-02   2.46962300E-03   1.51385814E-02
  0.487499982       8.75000060E-02  -5.58876619E-02   1.14540197E-03   1.57863647E-02
  0.512499988       8.75000060E-02  -5.60678691E-02  -2.59729510E-04   1.64725874E-02
  0.537500024       8.75000060E-02  -5.55333085E-02  -1.71630247E-03   1.71756521E-02
  0.562500000       8.75000060E-02  -5.42715900E-02  -3.18769831E-03   1.78750176E-02
  0.587499976       8.75000060E-02  -5.22893220E-02  -4.63004410E-03   1.85500477E-02
  0.612500012       8.75000060E-02  -4.96149138E-02  -5.99335041E-03   1.91789381E-02
  0.637499988       8.75000060E-02  -4.63006012E-02  -7.22340401E-03   1.97399445E-02
  0.662500024       8.75000060E-02  -4.24236208E-02  -8.26442800E-03   2.02128123E-02
  0.687500000       8.75000060E-02  -3.80860940E-02  -9.06245317E-03   2.05803588E-02
  0.712499976       8.75000060E-02  -3.34133990E-02  -9.56926402E-03   2.08300147E-02
  0.737500012       8.75000060E-02  -2.85508446E-02  -9.74671263E-03   2.09552068E-02
  0.762499988       8.75000060E-02  -2.36583129E-02  -9.57109779E-03   2.09563747E-02
  0.787500024       8.75000060E-02  -1.89029835E-02  -9.03725624E-03   2.08414700E-02
  0.812500000       8.75000060E-02  -1.44501692E-02  -8.16203561E-03   2.06258390E-02
  0.837499976       8.75000060E-02  -1.04525471E-02  -6.98694354E-03   2.03314424E-02
  0.862500012       8.75000060E-02  -7.03835860E-03  -5.58007695E-03   1.99854467E-02
  0.887499988       8.75000060E-02  -4.29917872E-03  -4.03790176E-03   1.96183678E-02
  0.912500024       8.75000060E-02  -2.27812142E-03  -2.48803687E-03   1.92619376E-02
  0.937500000       8.75000060E-02  -9.59405443E-04  -1.09473767E-03   1.89469345E-02
  0.962499976       8.75000060E-02  -2.60211265E-04  -6.90534434E-05   1.87012665E-02
  0.987500012       8.75000060E-02  -2.53704475E-05   3.14012286E-04   1.85487103E-02
   1.25000002E-02  0.112500004      -2.42102877E-04   4.82520089E-04   1.45295467E-02
   3.75000015E-02  0.112500004      -1.18698261E-03   2.29280000E-03   1.41623598E-02
   6.25000000E-02  0.112500004      -3.02368496E-03   4.43059253E-03   1.38169946E-02
   8.75000060E-02  0.112500004      -5.68119809E-03   6.56233169E-03   1.34991147E-02
  0.112500004      0.112500004      -9.06556752E-03   8.48982390E-03   1.32155148E-02
  0.137500003      0.112500004      -1.30645018E-02   1.01090269E-02   1.29724788E-02
  0.162500009      0.112500004      -1.75549332E-02   1.13773849E-02   1.27752023E-02
  0.187500000      0.112500004      -2.24101096E-02   1.22893089E-02   1.26278335E-02
  0.212500006      0.112500004      -2.75048167E-02   1.28587931E-02   1.25337867E-02
  0.237500012      0.112500004      -3.27185094E-02   1.31077804E-02   1.24960877E-02
  0.262499988      0.112500004      -3.79366353E-02   1.30591262E-02   1.25176460E-02
  0.287499994      0.112500004      -4.30508107E-02   1.27329268E-02   1.26013402E-02
  0.312500000      0.112500004      -4.79583777E-02   1.21453051E-02   1.27499541E-02
  0.337500006      0.112500004      -5.25618047E-02   1.13087855E-02   1.29659520E-02
  0.362499982      0.112500004      -5.67683317E-02   1.02336835E-02   1.32511389E-02
  0.387499988      0.112500004      -6.04899973E-02   8.92996788E-03   1.36062345E-02
  0.412499994      0.112500004      -6.36442304E-02   7.40929693E-03   1.40304044E-02
  0.437500000      0.112500004      -6.61549717E-02   5.68698533E-03   1.45207737E-02
  0.462500006      0.112500004      -6.79542422E-02   3.78374266E-03   1.50720291E-02
  0.487499982      0.112500004      -6.89841211E-02   1.72712887E-03   1.56760551E-02
  0.512499988      0.112500004      -6.91990256E-02  -4.47330618E-04   1.63217597E-02
  0.537500024      0.112500004      -6.85679391E-02  -2.69536348E-03   1.69881042E-02
  0.562500000      0.112500004      -6.70774877E-02  -4.96185198E-03   1.76551156E-02
  0.587499976      0.112500004      -6.47354275E-02  -7.18129240E-03   1.83027387E-02
  0.612500012      0.112500004      -6.15735650E-02  -9.27947648E-03   1.89094599E-02
  0.637499988      0.112500004      -5.76501191E-02  -1.11761522E-02   1.94535442E-02
  0.662500024      0.112500004      -5.30511439E-02  -1.27887670E-02   1.99144576E-02
  0.687500000      0.112500004      -4.78907041E-02  -1.40372235E-02   2.02744864E-02
  0.712499976      0.112500004      -4.23095301E-02  -1.48495072E-02   2.05203332E-02
  0.737500012      0.112500004      -3.64717320E-02  -1.51679665E-02   2.06445605E-02
  0.762499988      0.112500004      -3.05593982E-02  -1.49558363E-02   2.06466299E-02
  0.787500024      0.112500004      -2.47648731E-02  -1.42034851E-02   2.05334146E-02
  0.812500000      0.112500004      -1.92807280E-02  -1.29338559E-02   2.03190055E-02
  0.837499976      0.112500004      -1.42878685E-02  -1.12066632E-02   2.00238116E-02
  0.862500012      0.112500004      -9.94231366E-03  -9.12113115E-03   1.96730122E-02
  0.887499988      0.112500004      -6.36172295E-03  -6.81762258E-03   1.92945097E-02
  0.912500024      0.112500004      -3.61300260E-03  -4.47907578E-03   1.89167187E-02
  0.937500000      0.112500004      -1.70256943E-03  -2.33381288E-03   1.85663886E-02
  0.962499976      0.112500004      -5.71017561E-04  -6.61676400E-04   1.82667580E-02
  0.987500012      0.112500004      -9.41690305E-05   1.94137872E-04   1.80360079E-02
   1.25000002E-02  0.137500003      -3.34274460E-04   1.05842995E-03   1.49331652E-02
   3.75000015E-02  0.137500003      -1.59386173E-03   3.92031483E-03   1.44619364E-02
   6.25000000E-02  0.137500003      -3.96412332E-03   7.00891158E-03   1.40486201E-02
   8.75000060E-02  0.137500003      -7.30188657E-03   9.97819379E-03   1.36901289E-02
  0.112500004      0.137500003      -1.14617404E-02   1.26171187E-02   1.33847483E-02
  0.137500003      0.137500003      -1.62954293E-02   1.48133188E-02   1.31313074E-02
  0.162500009      0.137500003      -2.16544196E-02   1.65215004E-02   1.29289329E-02
  0.187500000      0.137500003      -2.73930579E-02   1.77380107E-02   1.27771730E-02
  0.212500006      0.137500003      -3.33710462E-02   1.84818096E-02   1.26761701E-02
  0.237500012      0.137500003      -3.94548066E-02   1.87812559E-02   1.26268864E-02
  0.262499988      0.137500003      -4.55178656E-02   1.86658874E-02   1.26311388E-02
  0.287499994      0.137500003      -5.14405146E-02   1.81620605E-02   1.26915108E-02
  0.312500000      0.137500003      -5.71091920E-02   1.72915049E-02   1.28111094E-02
  0.337500006      0.137500003      -6.24159425E-02   1.60718542E-02   1.29932016E-02
  0.362499982      0.137500003      -6.72581047E-02   1.45183913E-02   1.32407360E-02
  0.387499988      0.137500003      -7.15385228E-02   1.26464292E-02   1.35558322E-02
  0.412499994      0.137500003      -7.51662180E-02   1.04738660E-02   1.39391860E-02
  0.437500000      0.137500003      -7.80576393E-02   8.02367274E-03   1.43895503E-02
  0.462500006      0.137500003      -8.01382884E-02   5.32605313E-03   1.49031868E-02
  0.487499982      0.137500003      -8.13447386E-02   2.42021633E-03   1.54734766E-02
  0.512499988      0.137500003      -8.16268697E-02  -6.44337153E-04   1.60906315E-02
  0.537500024      0.137500003      -8.09502453E-02  -3.80705716E-03   1.67344548E-02
  0.562500000      0.137500003      -7.92990401E-02  -6.99282065E-03   1.73848085E-02
  0.587499976      0.137500003      -7.66796172E-02  -1.01128407E-02   1.80217456E-02
  0.612500012      0.137500003      -7.31237233E-02  -1.30667482E-02   1.86234545E-02
  0.637499988      0.137500003      -6.86911866E-02  -1.57459434E-02   1.91674419E-02
  0.662500024      0.137500003      -6.34718761E-02  -1.80383585E-02   1.96320508E-02
  0.687500000      0.137500003      -5.75864762E-02  -1.98345743E-02   1.99981388E-02
  0.712499976      0.137500003      -5.11857234E-02  -2.10351944E-02   2.02507600E-02
  0.737500012      0.137500003      -4.44476679E-02  -2.15592347E-02   2.03807596E-02
  0.762499988      0.137500003      -3.75726148E-02  -2.13530436E-02   2.03859136E-02
  0.787500024      0.137500003      -3.07753980E-02  -2.03990992E-02   2.02715490E-02
  0.812500000      0.137500003      -2.42749788E-02  -1.87238604E-02   2.00503618E-02
  0.837499976      0.137500003      -1.82816293E-02  -1.64038949E-02   1.97414998E-02
  0.862500012      0.137500003      -1.29824877E-02  -1.35695934E-02   1.93688851E-02
  0.887499988      0.137500003      -8.52677412E-03  -1.04064392E-02   1.89590827E-02
  0.912500024      0.137500003      -5.01238322E-03  -7.15431944E-03   1.85389016E-02
  0.937500000      0.137500003      -2.47604307E-03  -4.10627062E-03   1.81331821E-02
  0.962499976      0.137500003      -8.89293267E-04  -1.60843669E-03   1.77628901E-02
  0.987500012      0.137500003      -1.62834040E-04  -6.31844887E-05   1.74434837E-02
   1.25000002E-02  0.162500009      -4.21188277E-04   1.81341160E-03   1.52717177E-02
   3.75000015E-02  0.162500009      -1.98157295E-03   5.98423649E-03   1.46979541E-02
   6.25000000E-02  0.162500009      -4.86711971E-03   1.01996437E-02   1.42133348E-02
   8.75000060E-02  0.162500009      -8.86470452E-03   1.41216936E-02   1.38077410E-02
  0.112500004      0.162500009      -1.37760816E-02   1.75437666E-02   1.34723149E-02
  0.137500003      0.162500009      -1.94148161E-02   2.03580372E-02   1.31994579E-02
  0.162500009      0.162500009      -2.56053340E-02   2.25252528E-02   1.29829664E-02
  0.187500000      0.162500009      -3.21827084E-02   2.40492597E-02   1.28182508E-02
  0.212500006      0.162500009      -3.89924273E-02   2.49572713E-02   1.27025098E-02
  0.237500012      0.162500009      -4.58897650E-02   2.52859164E-02   1.26348147E-02
  0.262499988      0.162500009      -5.27388528E-02   2.50724126E-02   1.26160160E-02
  0.287499994      0.162500009      -5.94115555E-02   2.43499484E-02   1.26484782E-02
  0.312500000      0.162500009      -6.57864735E-02   2.31462922E-02   1.27357291E-02
  0.337500006      0.162500009      -7.17481524E-02   2.14845836E-02   1.28819235E-02
  0.362499982      0.162500009      -7.71867782E-02   1.93855539E-02   1.30912764E-02
  0.387499988      0.162500009      -8.19983929E-02   1.68704018E-02   1.33674107E-02
  0.412499994      0.162500009      -8.60855803E-02   1.39638968E-02   1.37126995E-02
  0.437500000      0.162500009      -8.93587172E-02   1.06973229E-02   1.41275916E-02
  0.462500006      0.162500009      -9.17375982E-02   7.11105298E-03   1.46100316E-02
  0.487499982      0.162500009      -9.31534469E-02   3.25660920E-03   1.51549149E-02
  0.512499988      0.162500009      -9.35511142E-02  -8.01848597E-04   1.57537553E-02
  0.537500024      0.162500009      -9.28914249E-02  -4.98679932E-03   1.63876601E-02
  0.562500000      0.162500009      -9.11540240E-02  -9.20264330E-03   1.70356110E-02
  0.587499976      0.162500009      -8.83408487E-02  -1.33365951E-02   1.76774580E-02
  0.612500012      0.162500009      -8.44797567E-02  -1.72609948E-02   1.82906128E-02
  0.637499988      0.162500009      -7.96278119E-02  -2.08372138E-02   1.88512392E-02
  0.662500024      0.162500009      -7.38739669E-02  -2.39212979E-02   1.93358026E-02
  0.687500000      0.162500009      -6.73407391E-02  -2.63713263E-02   1.97228920E-02
  0.712499976      0.162500009      -6.01844490E-02  -2.80565545E-02   1.99950263E-02
  0.737500012      0.162500009      -5.25934249E-02  -2.88680177E-02   2.01404374E-02
  0.762499988      0.162500009      -4.47836965E-02  -2.87300982E-02   2.01544371E-02
  0.787500024      0.162500009      -3.69917005E-02  -2.76122969E-02   2.00402122E-02
  0.812500000      0.162500009      -2.94637866E-02  -2.55400203E-02   1.98087897E-02
  0.837499976      0.162500009      -2.24426687E-02  -2.26031989E-02   1.94781888E-02
  0.862500012      0.162500009      -1.61516629E-02  -1.89614017E-02   1.90716907E-02
  0.887499988      0.162500009      -1.07781272E-02  -1.48448199E-02   1.86156258E-02
  0.912500024      0.162500009      -6.45827875E-03  -1.05510894E-02   1.81368142E-02
  0.937500000      0.162500009      -3.26598249E-03  -6.43902645E-03   1.76602025E-02
  0.962499976      0.162500009      -1.20822818E-03  -2.92105856E-03   1.72068290E-02
  0.987500012      0.162500009      -2.29832280E-04  -4.56152862E-04   1.67921614E-02
   1.25000002E-02  0.187500000      -5.02343522E-04   2.73645064E-03   1.55075835E-02
   3.75000015E-02  0.187500000      -2.34595314E-03   8.46410077E-03   1.48356976E-02
   6.25000000E-02  0.187500000      -5.72019443E-03   1.39783919E-02   1.42802205E-02
   8.75000060E-02  0.187500000      -1.03462981E-02   1.89655013E-02   1.38249183E-02
  0.112500004      0.187500000      -1.59745794E-02   2.32385248E-02   1.34546589E-02
  0.137500003      0.187500000      -2.23804228E-02   2.67067887E-02   1.31561793E-02
  0.162500009      0.187500000      -2.93609835E-02   2.93465275E-02   1.29185934E-02
  0.187500000      0.187500000      -3.67322490E-02   3.11756022E-02   1.27337035E-02
  0.212500006      0.187500000      -4.43263128E-02   3.22337039E-02   1.25961667E-02
  0.237500012      0.187500000      -5.19887693E-02   3.25682983E-02   1.25034777E-02
  0.262499988      0.187500000      -5.95763512E-02   3.22257429E-02   1.24557288E-02
  0.287499994      0.187500000      -6.69548213E-02   3.12468577E-02   1.24552660E-02
  0.312500000      0.187500000      -7.39973336E-02   2.96658948E-02   1.25061646E-02
  0.337500006      0.187500000      -8.05833414E-02   2.75117699E-02   1.26136150E-02
  0.362499982      0.187500000      -8.65980685E-02   2.48108488E-02   1.27832089E-02
  0.387499988      0.187500000      -9.19325575E-02   2.15903632E-02   1.30202062E-02
  0.412499994      0.187500000      -9.64843556E-02   1.78820826E-02   1.33287720E-02
  0.437500000      0.187500000     -0.100158617       1.37256999E-02   1.37111843E-02
  0.462500006      0.187500000     -0.102869689       9.17179789E-03   1.41671523E-02
  0.487499982      0.187500000     -0.104543030       4.28420817E-03   1.46931959E-02
  0.512499988      0.187500000     -0.105117396      -8.58269748E-04   1.52821634E-02
  0.537500024      0.187500000     -0.104547217      -6.16112584E-03   1.59172006E-02
  0.562500000      0.187500000     -0.102805093      -1.15087405E-02   1.65757351E-02
  0.587499976      0.187500000      -9.98852700E-02  -1.67644061E-02   1.72372498E-02
  0.612500012      0.187500000      -9.58077982E-02  -2.17726938E-02   1.78780388E-02
  0.637499988      0.187500000      -9.06225443E-02  -2.63636839E-02   1.84724238E-02
  0.662500024      0.187500000      -8.44129473E-02  -3.03592775E-02   1.89943630E-02
  0.687500000      0.187500000      -7.72988498E-02  -3.35816890E-02   1.94193311E-02
  0.712499976      0.187500000      -6.94380850E-02  -3.58642638E-02   1.97264049E-02
  0.737500012      0.187500000      -6.10260591E-02  -3.70643735E-02   1.99002363E-02
  0.762499988      0.187500000      -5.22926673E-02  -3.70778739E-02   1.99327525E-02
  0.787500024      0.187500000      -4.34958413E-02  -3.58543396E-02   1.98242534E-02
  0.812500000      0.187500000      -3.49112600E-02  -3.34114507E-02   1.95836313E-02
  0.837499976      0.187500000      -2.68182252E-02  -2.98468769E-02   1.92277171E-02
  0.862500012      0.187500000      -1.94823071E-02  -2.53455751E-02   1.87796019E-02
  0.887499988      0.187500000      -1.31364381E-02  -2.01809499E-02   1.82663575E-02
  0.912500024      0.187500000      -7.96287879E-03  -1.47092370E-02   1.77162793E-02
  0.937500000      0.187500000      -4.07916913E-03  -9.35772806E-03   1.71562769E-02
  0.962499976      0.187500000      -1.53124437E-03  -4.60885977E-03   1.66095737E-02
  0.987500012      0.187500000      -2.96207407E-04  -9.82475234E-04   1.60939023E-02
   1.25000002E-02  0.212500006      -5.77535247E-04   3.81582836E-03   1.56077584E-02
   3.75000015E-02  0.212500006      -2.68476084E-03   1.13344546E-02   1.48437768E-02
   6.25000000E-02  0.212500006      -6.51590433E-03   1.83122400E-02   1.42202023E-02
   8.75000060E-02  0.212500006      -1.17317103E-02   2.44724210E-02   1.37151144E-02
  0.112500004      0.212500006      -1.80340987E-02   2.96611711E-02   1.33076282E-02
  0.137500003      0.212500006      -2.51619238E-02   3.38167362E-02   1.29793789E-02
  0.162500009      0.212500006      -3.28860357E-02   3.69402021E-02   1.27153238E-02
  0.187500000      0.212500006      -4.10041809E-02   3.90703157E-02   1.25041632E-02
  0.212500006      0.212500006      -4.93361205E-02   4.02639844E-02   1.23384288E-02
  0.237500012      0.212500006      -5.77191487E-02   4.05825302E-02   1.22143840E-02
  0.262499988      0.212500006      -6.60042614E-02   4.00832668E-02   1.21316696E-02
  0.287499994      0.212500006      -7.40530193E-02   3.88156474E-02   1.20928194E-02
  0.312500000      0.212500006      -8.17351490E-02   3.68208550E-02   1.21026561E-02
  0.337500006      0.212500006      -8.89269114E-02   3.41337249E-02   1.21675404E-02
  0.362499982      0.212500006      -9.55102742E-02   3.07861604E-02   1.22945942E-02
  0.387499988      0.212500006     -0.101372734       2.68112030E-02   1.24908779E-02
  0.412499994      0.212500006     -0.106407732       2.22472493E-02   1.27624553E-02
  0.437500000      0.212500006     -0.110515654       1.71419345E-02   1.31135825E-02
  0.462500006      0.212500006     -0.113605276       1.15554892E-02   1.35459052E-02
  0.487499982      0.212500006     -0.115595624       5.56342630E-03   1.40576996E-02
  0.512499988      0.212500006     -0.116417982      -7.41529511E-04   1.46432901E-02
  0.537500024      0.212500006     -0.116018392      -7.24842586E-03   1.52888335E-02
  0.562500000      0.212500006     -0.114359900      -1.38228778E-02   1.59696527E-02
  0.587499976      0.212500006     -0.111425765      -2.03050710E-02   1.66648235E-02
  0.612500012      0.212500006     -0.107224241      -2.65118890E-02   1.73493437E-02
  0.637499988      0.212500006     -0.101793662      -3.22411992E-02   1.79953240E-02
  0.662500024      0.212500006      -9.52073559E-02  -3.72786000E-02   1.85735952E-02