 VARIABLES="X","Y","U","V","P"
 ZONE F=POINT, I=          64 , J=          64
   7.81250000E-03   7.81250000E-03   5.14413914E-05  -5.14519234E-05   4.24441285E-02
   2.34375000E-02   7.81250000E-03   2.76391482E-04  -1.73522174E-04   4.24622521E-02
   3.90625000E-02   7.81250000E-03   6.82473416E-04  -2.32585677E-04   4.24538329E-02
   5.46875000E-02   7.81250000E-03   1.14984484E-03  -2.34809238E-04   4.24075462E-02
   7.03125000E-02   7.81250000E-03   1.58441148E-03  -1.99778558E-04   4.23229113E-02
   8.59375000E-02   7.81250000E-03   1.92888407E-03  -1.44712845E-04   4.22042236E-02
  0.101562500       7.81250000E-03   2.15550931E-03  -8.19311026E-05   4.20570485E-02
  0.117187500       7.81250000E-03   2.25641904E-03  -1.89997390E-05   4.18863222E-02
  0.132812500       7.81250000E-03   2.23484915E-03   4.05472929E-05   4.16953675E-02
  0.148437500       7.81250000E-03   2.09798431E-03   9.62912382E-05   4.14857343E-02
  0.164062500       7.81250000E-03   1.85176160E-03   1.49901753E-04   4.12573926E-02
  0.179687500       7.81250000E-03   1.49772060E-03   2.04107462E-04   4.10092399E-02
  0.195312500       7.81250000E-03   1.03179540E-03   2.61784386E-04   4.07397710E-02
  0.210937500       7.81250000E-03   4.44714125E-04   3.25262576E-04   4.04476002E-02
  0.226562500       7.81250000E-03  -2.76550738E-04   3.95966490E-04   4.01320681E-02
  0.242187500       7.81250000E-03  -1.14679674E-03   4.74244094E-04   3.97935659E-02
  0.257812500       7.81250000E-03  -2.18052533E-03   5.59450244E-04   3.94338816E-02
  0.273437500       7.81250000E-03  -3.39004025E-03   6.50030153E-04   3.90564613E-02
  0.289062500       7.81250000E-03  -4.78372816E-03   7.43620563E-04   3.86665389E-02
  0.304687500       7.81250000E-03  -6.36449270E-03   8.37103114E-04   3.82712968E-02
  0.320312500       7.81250000E-03  -8.12832825E-03   9.26688255E-04   3.78799289E-02
  0.335937500       7.81250000E-03  -1.00630522E-02   1.00799219E-03   3.75035480E-02
  0.351562500       7.81250000E-03  -1.21471426E-02   1.07605627E-03   3.71551290E-02
  0.367187500       7.81250000E-03  -1.43488888E-02   1.12565432E-03   3.68490554E-02
  0.382812500       7.81250000E-03  -1.66260563E-02   1.15148514E-03   3.66005525E-02
  0.398437500       7.81250000E-03  -1.89259797E-02   1.14841608E-03   3.64248939E-02
  0.414062500       7.81250000E-03  -2.11862829E-02   1.11187226E-03   3.63365933E-02
  0.429687500       7.81250000E-03  -2.33363770E-02   1.03820942E-03   3.63479517E-02
  0.445312500       7.81250000E-03  -2.52995938E-02   9.24989290E-04   3.64680849E-02
  0.460937500       7.81250000E-03  -2.69960351E-02   7.71423976E-04   3.67015749E-02
  0.476562500       7.81250000E-03  -2.83459928E-02   5.78497886E-04   3.70475128E-02
  0.492187500       7.81250000E-03  -2.92739123E-02   3.49377864E-04   3.74983773E-02
  0.507812500       7.81250000E-03  -2.97128391E-02   8.95068588E-05   3.80398929E-02
  0.523437500       7.81250000E-03  -2.96086315E-02  -1.93752130E-04   3.86507362E-02
  0.539062500       7.81250000E-03  -2.89244018E-02  -4.90507227E-04   3.93032432E-02
  0.554687500       7.81250000E-03  -2.76448652E-02  -7.89058278E-04   3.99640352E-02
  0.570312500       7.81250000E-03  -2.57793888E-02  -1.07644952E-03   4.05962095E-02
  0.585937500       7.81250000E-03  -2.33640485E-02  -1.33892451E-03   4.11611721E-02
  0.601562500       7.81250000E-03  -2.04622857E-02  -1.56287220E-03   4.16218676E-02
  0.617187500       7.81250000E-03  -1.71637144E-02  -1.73573208E-03   4.19453681E-02
  0.632812500       7.81250000E-03  -1.35809518E-02  -1.84706121E-03   4.21058908E-02
  0.648437500       7.81250000E-03  -9.84435808E-03  -1.88956212E-03   4.20873910E-02
  0.664062500       7.81250000E-03  -6.09477237E-03  -1.86005188E-03   4.18849625E-02
  0.679687500       7.81250000E-03  -2.47478252E-03  -1.75996532E-03   4.15057167E-02
  0.695312500       7.81250000E-03   8.80787848E-04  -1.59563171E-03   4.09682058E-02
  0.710937500       7.81250000E-03   3.85428430E-03  -1.37789093E-03   4.03006189E-02
  0.726562500       7.81250000E-03   6.35357201E-03  -1.12142123E-03   3.95380668E-02
  0.742187500       7.81250000E-03   8.31808709E-03  -8.43115384E-04   3.87191735E-02
  0.757812500       7.81250000E-03   9.72166099E-03  -5.60478133E-04   3.78825441E-02
  0.773437500       7.81250000E-03   1.05720349E-02  -2.89912918E-04   3.70635018E-02
  0.789062500       7.81250000E-03   1.09071126E-02  -4.51792366E-05   3.62915657E-02
  0.804687500       7.81250000E-03   1.07885962E-02   1.63681514E-04   3.55889387E-02
  0.820312500       7.81250000E-03   1.02937985E-02   3.31104122E-04   3.49698737E-02
  0.835937500       7.81250000E-03   9.50684212E-03   4.55838192E-04   3.44413258E-02
  0.851562500       7.81250000E-03   8.51077959E-03   5.40209527E-04   3.40039097E-02
  0.867187500       7.81250000E-03   7.38134701E-03   5.89207397E-04   3.36534902E-02
  0.882812500       7.81250000E-03   6.18293695E-03   6.09186536E-04   3.33829448E-02
  0.898437500       7.81250000E-03   4.96750604E-03   6.06226851E-04   3.31838131E-02
  0.914062500       7.81250000E-03   3.77703528E-03   5.84225403E-04   3.30478065E-02
  0.929687500       7.81250000E-03   2.65019014E-03   5.42601396E-04   3.29676606E-02
  0.945312500       7.81250000E-03   1.63341337E-03   4.74156841E-04   3.29371542E-02
  0.960937500       7.81250000E-03   7.94248364E-04   3.64989421E-04   3.29493172E-02
  0.976562500       7.81250000E-03   2.26702730E-04   2.02537878E-04   3.29918340E-02
  0.992187500       7.81250000E-03   1.20779114E-05   1.20719869E-05   3.30387875E-02
   7.81250000E-03   2.34375000E-02   1.74180706E-04  -2.77098763E-04   4.24259305E-02
   2.34375000E-02   2.34375000E-02   7.25296908E-04  -7.23997073E-04   4.24440727E-02
   3.90625000E-02   2.34375000E-02   1.56213774E-03  -9.25092958E-04   4.24316004E-02
   5.46875000E-02   2.34375000E-02   2.46509491E-03  -9.12684598E-04   4.23851348E-02
   7.03125000E-02   2.34375000E-02   3.26190423E-03  -7.53328088E-04   4.23052311E-02
   8.59375000E-02   2.34375000E-02   3.83482128E-03  -5.08598459E-04   4.21951897E-02
  0.101562500       2.34375000E-02   4.11513448E-03  -2.25029973E-04   4.20593023E-02
  0.117187500       2.34375000E-02   4.07087523E-03   6.73986724E-05   4.19014208E-02
  0.132812500       2.34375000E-02   3.69278505E-03   3.53754032E-04   4.17241752E-02
  0.148437500       2.34375000E-02   2.98147998E-03   6.31191419E-04   4.15287726E-02
  0.164062500       2.34375000E-02   1.93742174E-03   9.05213063E-04   4.13150974E-02
  0.179687500       2.34375000E-02   5.54603583E-04   1.18558190E-03   4.10821438E-02
  0.195312500       2.34375000E-02  -1.18188839E-03   1.48264982E-03   4.08285186E-02
  0.210937500       2.34375000E-02  -3.29488982E-03   1.80440082E-03   4.05529290E-02
  0.226562500       2.34375000E-02  -5.81175461E-03   2.15487671E-03   4.02546413E-02
  0.242187500       2.34375000E-02  -8.75961594E-03   2.53335969E-03   3.99338081E-02
  0.257812500       2.34375000E-02  -1.21602332E-02   2.93460162E-03   3.95918079E-02
  0.273437500       2.34375000E-02  -1.60250925E-02   3.34917544E-03   3.92314531E-02
  0.289062500       2.34375000E-02  -2.03510318E-02   3.76401702E-03   3.88572551E-02
  0.304687500       2.34375000E-02  -2.51165163E-02   4.16286057E-03   3.84754986E-02
  0.320312500       2.34375000E-02  -3.02787647E-02   4.52691410E-03   3.80945057E-02
  0.335937500       2.34375000E-02  -3.57717797E-02   4.83541284E-03   3.77243422E-02
  0.351562500       2.34375000E-02  -4.15056348E-02   5.06648747E-03   3.73772606E-02
  0.367187500       2.34375000E-02  -4.73671295E-02   5.19837858E-03   3.70668471E-02
  0.382812500       2.34375000E-02  -5.32219075E-02   5.21063991E-03   3.68078202E-02
  0.398437500       2.34375000E-02  -5.89182675E-02   5.08548692E-03   3.66151631E-02
  0.414062500       2.34375000E-02  -6.42922446E-02   4.80904058E-03   3.65033969E-02
  0.429687500       2.34375000E-02  -6.91737831E-02   4.37264424E-03   3.64850983E-02
  0.445312500       2.34375000E-02  -7.33934939E-02   3.77344177E-03   3.65700088E-02
  0.460937500       2.34375000E-02  -7.67898411E-02   3.01569048E-03   3.67635265E-02
  0.476562500       2.34375000E-02  -7.92165101E-02   2.11077509E-03   3.70658226E-02
  0.492187500       2.34375000E-02  -8.05489942E-02   1.07741123E-03   3.74706797E-02
  0.507812500       2.34375000E-02  -8.06905478E-02  -5.81380955E-05   3.79649699E-02
  0.523437500       2.34375000E-02  -7.95780644E-02  -1.26288226E-03   3.85289788E-02
  0.539062500       2.34375000E-02  -7.71866217E-02  -2.49711657E-03   3.91363651E-02
  0.554687500       2.34375000E-02  -7.35321343E-02  -3.71654285E-03   3.97549905E-02
  0.570312500       2.34375000E-02  -6.86729997E-02  -4.87363525E-03   4.03493270E-02
  0.585937500       2.34375000E-02  -6.27107024E-02  -5.91944717E-03   4.08817232E-02
  0.601562500       2.34375000E-02  -5.57886884E-02  -6.80619199E-03   4.13160920E-02
  0.617187500       2.34375000E-02  -4.80894633E-02  -7.49027543E-03   4.16202322E-02
  0.632812500       2.34375000E-02  -3.98294814E-02  -7.93533120E-03   4.17689420E-02
  0.648437500       2.34375000E-02  -3.12517881E-02  -8.11564736E-03   4.17463891E-02
  0.664062500       2.34375000E-02  -2.26164050E-02  -8.01900029E-03   4.15478610E-02
  0.679687500       2.34375000E-02  -1.41886268E-02  -7.64884567E-03   4.11803462E-02
  0.695312500       2.34375000E-02  -6.22570002E-03  -7.02530937E-03   4.06620577E-02
  0.710937500       2.34375000E-02   1.03709416E-03  -6.18456444E-03   4.00205888E-02
  0.726562500       2.34375000E-02   7.39982165E-03  -5.17682079E-03   3.92902158E-02
  0.742187500       2.34375000E-02   1.27101354E-02  -4.06259764E-03   3.85083258E-02
  0.757812500       2.34375000E-02   1.68720558E-02  -2.90653575E-03   3.77120525E-02
  0.773437500       2.34375000E-02   1.98499598E-02  -1.77217124E-03   3.69350240E-02
  0.789062500       2.34375000E-02   2.16680244E-02  -7.16098701E-04   3.62049304E-02
  0.804687500       2.34375000E-02   2.24043243E-02   2.16787827E-04   3.55421826E-02
  0.820312500       2.34375000E-02   2.21806914E-02   9.96398507E-04   3.49595360E-02
  0.835937500       2.34375000E-02   2.11491920E-02   1.60897011E-03   3.44625153E-02
  0.851562500       2.34375000E-02   1.94769092E-02   2.05538818E-03   3.40509638E-02
  0.867187500       2.34375000E-02   1.73320100E-02   2.34832568E-03   3.37203592E-02
  0.882812500       2.34375000E-02   1.48728760E-02   2.50758068E-03   3.34635451E-02
  0.898437500       2.34375000E-02   1.22421756E-02   2.55392282E-03   3.32722515E-02
  0.914062500       2.34375000E-02   9.56760533E-03   2.50152824E-03   3.31382304E-02
  0.929687500       2.34375000E-02   6.96991617E-03   2.34979205E-03   3.30541953E-02
  0.945312500       2.34375000E-02   4.57688514E-03   2.07673339E-03   3.30138952E-02
  0.960937500       2.34375000E-02   2.53777648E-03   1.64064544E-03   3.30113135E-02
  0.976562500       2.34375000E-02   1.02609664E-03   1.00606738E-03   3.30388993E-02
  0.992187500       2.34375000E-02   2.12547151E-04   2.36683263E-04   3.30857374E-02
   7.81250000E-03   3.90625000E-02   2.37811357E-04  -6.89119101E-04   4.24338803E-02
   2.34375000E-02   3.90625000E-02   9.40867118E-04  -1.56621216E-03   4.24555317E-02
   3.90625000E-02   3.90625000E-02   1.93304277E-03  -1.91196287E-03   4.24418412E-02
   5.46875000E-02   3.90625000E-02   2.92610237E-03  -1.82189490E-03   4.23945636E-02
   7.03125000E-02   3.90625000E-02   3.70951137E-03  -1.42439548E-03   4.23164219E-02
   8.59375000E-02   3.90625000E-02   4.13706992E-03  -8.38065287E-04   4.22112569E-02
  0.101562500       3.90625000E-02   4.11635311E-03  -1.55219954E-04   4.20831889E-02
  0.117187500       3.90625000E-02   3.59534845E-03   5.62787696E-04   4.19355780E-02
  0.132812500       3.90625000E-02   2.54769786E-03   1.28403376E-03   4.17705663E-02
  0.148437500       3.90625000E-02   9.58879711E-04   2.00095610E-03   4.15888354E-02
  0.164062500       3.90625000E-02  -1.18468865E-03   2.72299093E-03   4.13898043E-02
  0.179687500       3.90625000E-02  -3.90219572E-03   3.46804224E-03   4.11720537E-02
  0.195312500       3.90625000E-02  -7.22019747E-03   4.25459258E-03   4.09337804E-02
  0.210937500       3.90625000E-02  -1.11701256E-02   5.09529701E-03   4.06732485E-02
  0.226562500       3.90625000E-02  -1.57827232E-02   5.99335087E-03   4.03892137E-02
  0.242187500       3.90625000E-02  -2.10808758E-02   6.94080442E-03   4.00811993E-02
  0.257812500       3.90625000E-02  -2.70720627E-02   7.91887194E-03   3.97497565E-02
  0.273437500       3.90625000E-02  -3.37414555E-02   8.89906939E-03   3.93968597E-02
  0.289062500       3.90625000E-02  -4.10463437E-02   9.84484330E-03   3.90261076E-02
  0.304687500       3.90625000E-02  -4.89122868E-02   1.07133482E-02   3.86428498E-02
  0.320312500       3.90625000E-02  -5.72311953E-02   1.14574758E-02   3.82545702E-02
  0.335937500       3.90625000E-02  -6.58617839E-02   1.20283579E-02   3.78708765E-02
  0.351562500       3.90625000E-02  -7.46327490E-02   1.23782558E-02   3.75037976E-02
  0.367187500       3.90625000E-02  -8.33481625E-02   1.24634244E-02   3.71669382E-02
  0.382812500       3.90625000E-02  -9.17948335E-02   1.22469682E-02   3.68757024E-02
  0.398437500       3.90625000E-02  -9.97510403E-02   1.17016509E-02   3.66458483E-02
  0.414062500       3.90625000E-02 -0.106995784       1.08115403E-02   3.64931040E-02
  0.429687500       3.90625000E-02 -0.113317579       9.57343914E-03   3.64313498E-02
  0.445312500       3.90625000E-02 -0.118522689       7.99743086E-03   3.64720002E-02
  0.460937500       3.90625000E-02 -0.122442037       6.10731728E-03   3.66219878E-02
  0.476562500       3.90625000E-02 -0.124936327       3.94001277E-03   3.68827879E-02
  0.492187500       3.90625000E-02 -0.125900015       1.54426729E-03   3.72496061E-02
  0.507812500       3.90625000E-02 -0.125264198      -1.01933721E-03   3.77102420E-02
  0.523437500       3.90625000E-02 -0.122999221      -3.67924455E-03   3.82460728E-02
  0.539062500       3.90625000E-02 -0.119115070      -6.35643676E-03   3.88310924E-02
  0.554687500       3.90625000E-02 -0.113661259      -8.96559469E-03   3.94332968E-02
  0.570312500       3.90625000E-02 -0.106727704      -1.14173284E-02   4.00171652E-02
  0.585937500       3.90625000E-02  -9.84446630E-02  -1.36211682E-02   4.05447036E-02
  0.601562500       3.90625000E-02  -8.89820904E-02  -1.54891238E-02   4.09790426E-02
  0.617187500       3.90625000E-02  -7.85479397E-02  -1.69407800E-02   4.12871391E-02
  0.632812500       3.90625000E-02  -6.73847124E-02  -1.79081094E-02   4.14427668E-02
  0.648437500       3.90625000E-02  -5.57642579E-02  -1.83410980E-02   4.14291508E-02
  0.664062500       3.90625000E-02  -4.39803004E-02  -1.82129648E-02   4.12408561E-02
  0.679687500       3.90625000E-02  -3.23385298E-02  -1.75244920E-02   4.08844054E-02
  0.695312500       3.90625000E-02  -2.11445466E-02  -1.63066369E-02   4.03780639E-02
  0.710937500       3.90625000E-02  -1.06899058E-02  -1.46207381E-02   3.97496745E-02
  0.726562500       3.90625000E-02  -1.23752537E-03  -1.25558181E-02   3.90341803E-02
  0.742187500       3.90625000E-02   6.99208584E-03  -1.02235870E-02   3.82697806E-02
  0.757812500       3.90625000E-02   1.38337305E-02  -7.74916541E-03   3.74941304E-02
  0.773437500       3.90625000E-02   1.91871449E-02  -5.26090618E-03   3.67411561E-02
  0.789062500       3.90625000E-02   2.30213068E-02  -2.87963031E-03   3.60383205E-02
  0.804687500       3.90625000E-02   2.53737085E-02  -7.08414824E-04   3.54052857E-02
  0.820312500       3.90625000E-02   2.63441801E-02   1.17472722E-03   3.48537117E-02
  0.835937500       3.90625000E-02   2.60843895E-02   2.72190012E-03   3.43875550E-02
  0.851562500       3.90625000E-02   2.47830041E-02   3.91609222E-03   3.40050645E-02
  0.867187500       3.90625000E-02   2.26488747E-02   4.76661697E-03   3.37002315E-02
  0.882812500       3.90625000E-02   1.98961906E-02   5.30107506E-03   3.34647819E-02
  0.898437500       3.90625000E-02   1.67336240E-02   5.55365533E-03   3.32895070E-02
  0.914062500       3.90625000E-02   1.33596957E-02   5.55025227E-03   3.31656225E-02
  0.929687500       3.90625000E-02   9.96577647E-03   5.29263401E-03   3.30857597E-02
  0.945312500       3.90625000E-02   6.74586277E-03   4.74679330E-03   3.30443978E-02
  0.960937500       3.90625000E-02   3.90964281E-03   3.84587096E-03   3.30379270E-02
  0.976562500       3.90625000E-02   1.69525202E-03   2.52686953E-03   3.30645703E-02
  0.992187500       3.90625000E-02   3.87715583E-04   8.36930703E-04   3.31247598E-02
   7.81250000E-03   5.46875000E-02   2.46710901E-04  -1.17366971E-03   4.24805470E-02
   2.34375000E-02   5.46875000E-02   9.44489730E-04  -2.48256046E-03   4.25007790E-02
   3.90625000E-02   5.46875000E-02   1.85840414E-03  -2.90177623E-03   4.24836427E-02
   5.46875000E-02   5.46875000E-02   2.66141049E-03  -2.62821768E-03   4.24332619E-02
   7.03125000E-02   5.46875000E-02   3.12500540E-03  -1.86514494E-03   4.23540771E-02
   8.59375000E-02   5.46875000E-02   3.09167383E-03  -7.91612081E-04   4.22507897E-02
  0.101562500       5.46875000E-02   2.45719636E-03   4.53447283E-04   4.21277359E-02
  0.117187500       5.46875000E-02   1.15531823E-03   1.77692366E-03   4.19880748E-02
  0.132812500       5.46875000E-02  -8.56687955E-04   3.12946877E-03   4.18334156E-02
  0.148437500       5.46875000E-02  -3.61065473E-03   4.49821493E-03   4.16637436E-02
  0.164062500       5.46875000E-02  -7.13669322E-03   5.89524489E-03   4.14776765E-02
  0.179687500       5.46875000E-02  -1.14675518E-02   7.34406058E-03   4.12728712E-02
  0.195312500       5.46875000E-02  -1.66378208E-02   8.86675343E-03   4.10466194E-02
  0.210937500       5.46875000E-02  -2.26787943E-02   1.04739442E-02   4.07961607E-02
  0.226562500       5.46875000E-02  -2.96103284E-02   1.21587394E-02   4.05192003E-02
  0.242187500       5.46875000E-02  -3.74316126E-02   1.38947628E-02   4.02141139E-02
  0.257812500       5.46875000E-02  -4.61125486E-02   1.56369489E-02   3.98802832E-02
  0.273437500       5.46875000E-02  -5.55868074E-02   1.73245464E-02   3.95184830E-02
  0.289062500       5.46875000E-02  -6.57477900E-02   1.88851152E-02   3.91314179E-02
  0.304687500       5.46875000E-02  -7.64477253E-02   2.02388316E-02   3.87235470E-02
  0.320312500       5.46875000E-02  -8.75004753E-02   2.13035494E-02   3.83020788E-02
  0.335937500       5.46875000E-02  -9.86880586E-02   2.20003761E-02   3.78770158E-02
  0.351562500       5.46875000E-02 -0.109769844       2.22588889E-02   3.74609083E-02
  0.367187500       5.46875000E-02 -0.120493501       2.20217761E-02   3.70690115E-02
  0.382812500       5.46875000E-02 -0.130606711       2.12484393E-02   3.67181897E-02
  0.398437500       5.46875000E-02 -0.139867917       1.99174955E-02   3.64263281E-02
  0.414062500       5.46875000E-02 -0.148055285       1.80277042E-02   3.62112820E-02
  0.429687500       5.46875000E-02 -0.154973596       1.55973472E-02   3.60891670E-02
  0.445312500       5.46875000E-02 -0.160458341       1.26633383E-02   3.60733084E-02
  0.460937500       5.46875000E-02 -0.164377332       9.27967299E-03   3.61726247E-02
  0.476562500       5.46875000E-02 -0.166631073       5.51561080E-03   3.63894552E-02
  0.492187500       5.46875000E-02 -0.167152479       1.45370676E-03   3.67209911E-02
  0.507812500       5.46875000E-02 -0.165906116      -2.81101000E-03   3.71554606E-02
  0.523437500       5.46875000E-02 -0.162886545      -7.17220269E-03   3.76745872E-02
  0.539062500       5.46875000E-02 -0.158117801      -1.15164584E-02   3.82525921E-02
  0.554687500       5.46875000E-02 -0.151654378      -1.57228652E-02   3.88571210E-02
  0.570312500       5.46875000E-02 -0.143582880      -1.96651798E-02   3.94521989E-02
  0.585937500       5.46875000E-02 -0.134023875      -2.32154131E-02   3.99991497E-02
  0.601562500       5.46875000E-02 -0.123133555      -2.62478590E-02   4.04588506E-02
  0.617187500       5.46875000E-02 -0.111104637      -2.86451876E-02   4.07969989E-02
  0.632812500       5.46875000E-02  -9.81665626E-02  -3.03050727E-02   4.09849398E-02
  0.648437500       5.46875000E-02  -8.45832974E-02  -3.11479308E-02   4.10038680E-02
  0.664062500       5.46875000E-02  -7.06487000E-02  -3.11247576E-02   4.08463925E-02
  0.679687500       5.46875000E-02  -5.66789508E-02  -3.02242842E-02   4.05174978E-02
  0.695312500       5.46875000E-02  -4.30018306E-02  -2.84780115E-02   4.00346853E-02
  0.710937500       5.46875000E-02  -2.99434736E-02  -2.59624273E-02   3.94258387E-02
  0.726562500       5.46875000E-02  -1.78130046E-02  -2.27970388E-02   3.87267843E-02
  0.742187500       5.46875000E-02  -6.88670948E-03  -1.91383343E-02   3.79771404E-02
  0.757812500       5.46875000E-02   2.60680611E-03  -1.51696382E-02   3.72163281E-02
  0.773437500       5.46875000E-02   1.04993545E-02  -1.10864509E-02   3.64798829E-02
  0.789062500       5.46875000E-02   1.66929606E-02  -7.08189793E-03   3.57965305E-02
  0.804687500       5.46875000E-02   2.11639889E-02  -3.32961511E-03   3.51865292E-02
  0.820312500       5.46875000E-02   2.39614621E-02   2.79490196E-05   3.46611924E-02
  0.835937500       5.46875000E-02   2.52005495E-02   2.88935308E-03   3.42240036E-02
  0.851562500       5.46875000E-02   2.50518024E-02   5.19874319E-03   3.38713937E-02
  0.867187500       5.46875000E-02   2.37267222E-02   6.94315135E-03   3.35956141E-02
  0.882812500       5.46875000E-02   2.14614458E-02   8.14247411E-03   3.33866477E-02
  0.898437500       5.46875000E-02   1.85028743E-02   8.83336272E-03   3.32337767E-02
  0.914062500       5.46875000E-02   1.50992917E-02   9.04802140E-03   3.31270881E-02
  0.929687500       5.46875000E-02   1.14973225E-02   8.79071560E-03   3.30587700E-02
  0.945312500       5.46875000E-02   7.94639438E-03   8.01951345E-03   3.30237970E-02
  0.960937500       5.46875000E-02   4.71126428E-03   6.64445851E-03   3.30205485E-02
  0.976562500       5.46875000E-02   2.09582364E-03   4.55807149E-03   3.30513939E-02
  0.992187500       5.46875000E-02   4.92211315E-04   1.71684334E-03   3.31234299E-02
   7.81250000E-03   7.03125000E-02   2.13898908E-04  -1.63430860E-03   4.25695144E-02
   2.34375000E-02   7.03125000E-02   7.75959052E-04  -3.28182662E-03   4.25817780E-02
   3.90625000E-02   7.03125000E-02   1.40842854E-03  -3.64896934E-03   4.25571240E-02
   5.46875000E-02   7.03125000E-02   1.77818607E-03  -3.05386656E-03   4.25006263E-02
   7.03125000E-02   7.03125000E-02   1.65744312E-03  -1.78242812E-03   4.24177051E-02
   8.59375000E-02   7.03125000E-02   8.89587565E-04  -7.32261105E-05   4.23136950E-02
  0.101562500       7.03125000E-02  -6.33313088E-04   1.89234945E-03   4.21930626E-02
  0.117187500       7.03125000E-02  -2.98700295E-03   3.99349583E-03   4.20586988E-02
  0.132812500       7.03125000E-02  -6.22825325E-03   6.16605487E-03   4.19115201E-02
  0.148437500       7.03125000E-02  -1.04048103E-02   8.39204807E-03   4.17505689E-02
  0.164062500       7.03125000E-02  -1.55609772E-02   1.06835132E-02   4.15731817E-02
  0.179687500       7.03125000E-02  -2.17380542E-02   1.30636292E-02   4.13756445E-02
  0.195312500       7.03125000E-02  -2.89695896E-02   1.55488970E-02   4.11537103E-02
  0.210937500       7.03125000E-02  -3.72728258E-02   1.81359202E-02   4.09030803E-02
  0.226562500       7.03125000E-02  -4.66384366E-02   2.07938198E-02   4.06197384E-02
  0.242187500       7.03125000E-02  -5.70206605E-02   2.34631151E-02   4.03003693E-02
  0.257812500       7.03125000E-02  -6.83299899E-02   2.60587800E-02   3.99429612E-02
  0.273437500       7.03125000E-02  -8.04296434E-02   2.84765176E-02   3.95469330E-02
  0.289062500       7.03125000E-02  -9.31364298E-02   3.06007899E-02   3.91142815E-02
  0.304687500       7.03125000E-02 -0.106226936       3.23134698E-02   3.86492461E-02
  0.320312500       7.03125000E-02 -0.119447678       3.35023142E-02   3.81599478E-02
  0.335937500       7.03125000E-02 -0.132528037       3.40694822E-02   3.76576483E-02
  0.351562500       7.03125000E-02 -0.145194471       3.39379236E-02   3.71569395E-02
  0.367187500       7.03125000E-02 -0.157183856       3.30556892E-02   3.66757661E-02
  0.382812500       7.03125000E-02 -0.168254316       3.13981399E-02   3.62337381E-02
  0.398437500       7.03125000E-02 -0.178192824       2.89673992E-02   3.58517393E-02
  0.414062500       7.03125000E-02 -0.186818630       2.57908534E-02   3.55503038E-02
  0.429687500       7.03125000E-02 -0.193983898       2.19177417E-02   3.53476256E-02
  0.445312500       7.03125000E-02 -0.199572027       1.74157768E-02   3.52597125E-02
  0.460937500       7.03125000E-02 -0.203494251       1.23683568E-02   3.52965854E-02
  0.476562500       7.03125000E-02 -0.205685928       6.87228236E-03   3.54625285E-02
  0.492187500       7.03125000E-02 -0.206103683       1.03615096E-03   3.57554406E-02
  0.507812500       7.03125000E-02 -0.204722911      -5.02063567E-03   3.61648649E-02
  0.523437500       7.03125000E-02 -0.201536343      -1.11687789E-02   3.66724543E-02
  0.539062500       7.03125000E-02 -0.196555257      -1.72697622E-02   3.72530408E-02
  0.554687500       7.03125000E-02 -0.189812660      -2.31756344E-02   3.78746763E-02
  0.570312500       7.03125000E-02 -0.181366444      -2.87302025E-02   3.85004878E-02
  0.585937500       7.03125000E-02 -0.171303451      -3.37724276E-02   3.90905365E-02
  0.601562500       7.03125000E-02 -0.159743994      -3.81407067E-02   3.96045595E-02
  0.617187500       7.03125000E-02 -0.146846145      -4.16791812E-02   4.00051810E-02
  0.632812500       7.03125000E-02 -0.132808983      -4.42463793E-02   4.02607173E-02
  0.648437500       7.03125000E-02 -0.117873803      -4.57251295E-02   4.03490067E-02
  0.664062500       7.03125000E-02 -0.102322668      -4.60333601E-02   4.02587764E-02
  0.679687500       7.03125000E-02  -8.64731595E-02  -4.51349914E-02   3.99918556E-02
  0.695312500       7.03125000E-02  -7.06692189E-02  -4.30484265E-02   3.95634994E-02
  0.710937500       7.03125000E-02  -5.52678034E-02  -3.98518518E-02   3.90002131E-02
  0.726562500       7.03125000E-02  -4.06224914E-02  -3.56834568E-02   3.83377671E-02
  0.742187500       7.03125000E-02  -2.70651206E-02  -3.07356454E-02   3.76168042E-02
  0.757812500       7.03125000E-02  -1.48874186E-02  -2.52436120E-02   3.68789807E-02
  0.773437500       7.03125000E-02  -4.32450417E-03  -1.94680002E-02   3.61623690E-02
  0.789062500       7.03125000E-02   4.45741555E-03  -1.36759263E-02   3.54980342E-02
  0.804687500       7.03125000E-02   1.13690756E-02  -8.11831839E-03   3.49081419E-02
  0.820312500       7.03125000E-02   1.64011940E-02  -3.01297172E-03   3.44053656E-02
  0.835937500       7.03125000E-02   1.96205955E-02   1.47175509E-03   3.39933261E-02
  0.851562500       7.03125000E-02   2.11622007E-02   5.22345584E-03   3.36682312E-02
  0.867187500       7.03125000E-02   2.12180000E-02   8.18770006E-03   3.34208272E-02
  0.882812500       7.03125000E-02   2.00226679E-02   1.03585124E-02   3.32394205E-02
  0.898437500       7.03125000E-02   1.78387910E-02   1.17597450E-02   3.31115797E-02
  0.914062500       7.03125000E-02   1.49447126E-02   1.24192638E-02   3.30259390E-02
  0.929687500       7.03125000E-02   1.16272420E-02   1.23388739E-02   3.29737216E-02
  0.945312500       7.03125000E-02   8.18190165E-03   1.14675825E-02   3.29496861E-02
  0.960937500       7.03125000E-02   4.92397882E-03   9.68939997E-03   3.29531133E-02
  0.976562500       7.03125000E-02   2.21609999E-03   6.83640828E-03   3.29884365E-02
  0.992187500       7.03125000E-02   5.24572504E-04   2.73361406E-03   3.30657996E-02
   7.81250000E-03   8.59375000E-02   1.47537605E-04  -1.99577608E-03   4.27003875E-02
   2.34375000E-02   8.59375000E-02   4.62793338E-04  -3.79774487E-03   4.26984690E-02
   3.90625000E-02   8.59375000E-02   6.34529628E-04  -3.93733755E-03   4.26621325E-02
   5.46875000E-02   8.59375000E-02   3.55756260E-04  -2.85656913E-03   4.25966047E-02
   7.03125000E-02   8.59375000E-02  -5.81112283E-04  -9.22207430E-04   4.25075665E-02
   8.59375000E-02   8.59375000E-02  -2.32083141E-03   1.57402828E-03   4.24004421E-02
  0.101562500       8.59375000E-02  -4.96887509E-03   4.41593677E-03   4.22794521E-02
  0.117187500       8.59375000E-02  -8.60667042E-03   7.46128988E-03   4.21468951E-02
  0.132812500       8.59375000E-02  -1.33018130E-02   1.06345471E-02   4.20026965E-02
  0.148437500       8.59375000E-02  -1.91137679E-02   1.39119541E-02   4.18444909E-02
  0.164062500       8.59375000E-02  -2.60944404E-02   1.73003357E-02   4.16679047E-02
  0.179687500       8.59375000E-02  -3.42834890E-02   2.08128300E-02   4.14673090E-02
  0.195312500       8.59375000E-02  -4.36991528E-02   2.44468115E-02   4.12362590E-02
  0.210937500       8.59375000E-02  -5.43269217E-02   2.81689353E-02   4.09682021E-02
  0.226562500       8.59375000E-02  -6.61087334E-02   3.19081619E-02   4.06570174E-02
  0.242187500       8.59375000E-02  -7.89355636E-02   3.55577581E-02   4.02973406E-02
  0.257812500       8.59375000E-02  -9.26449820E-02   3.89827713E-02   3.98855433E-02
  0.273437500       8.59375000E-02 -0.107024536       4.20316160E-02   3.94202434E-02
  0.289062500       8.59375000E-02 -0.121821366       4.45492081E-02   3.89033668E-02
  0.304687500       8.59375000E-02 -0.136756152       4.63902354E-02   3.83403078E-02
  0.320312500       8.59375000E-02 -0.151539713       4.74297553E-02   3.77411693E-02
  0.335937500       8.59375000E-02 -0.165889472       4.75720391E-02   3.71197984E-02
  0.351562500       8.59375000E-02 -0.179543197       4.67554554E-02   3.64943594E-02
  0.367187500       8.59375000E-02 -0.192269176       4.49534357E-02   3.58861648E-02
  0.382812500       8.59375000E-02 -0.203871042       4.21726592E-02   3.53186429E-02
  0.398437500       8.59375000E-02 -0.214188218       3.84484902E-02   3.48157026E-02
  0.414062500       8.59375000E-02 -0.223092973       3.38402390E-02   3.44004072E-02