 VARIABLES="X","Y","U","V","P"
 ZONE F=POINT, I=          32 , J=          32
   1.56250000E-02   1.56250000E-02   7.80367554E-05  -7.85568918E-05   1.24994125E-02
   4.68750000E-02   1.56250000E-02   1.46021819E-04   9.35978824E-06   1.22873159E-02
   7.81250000E-02   1.56250000E-02  -2.94298225E-05   1.64729659E-04   1.18798092E-02
  0.109375000       1.56250000E-02  -5.10334445E-04   3.14863923E-04   1.14049036E-02
  0.140625000       1.56250000E-02  -1.26167363E-03   4.35226772E-04   1.09572373E-02
  0.171875000       1.56250000E-02  -2.21923925E-03   5.21156064E-04   1.05971405E-02
  0.203125000       1.56250000E-02  -3.31682689E-03   5.75312471E-04   1.03597436E-02
  0.234375000       1.56250000E-02  -4.49543493E-03   6.02235203E-04   1.02640828E-02
  0.265625000       1.56250000E-02  -5.70475310E-03   6.06076210E-04   1.03198187E-02
  0.296875000       1.56250000E-02  -6.90159993E-03   5.89810428E-04   1.05313901E-02
  0.328125000       1.56250000E-02  -8.04751087E-03   5.55178849E-04   1.09000430E-02
  0.359375000       1.56250000E-02  -9.10655223E-03   5.02971350E-04   1.14242760E-02
  0.390625000       1.56250000E-02  -1.00438464E-02   4.33453242E-04   1.20992502E-02
  0.421875000       1.56250000E-02  -1.08249690E-02   3.46813351E-04   1.29155982E-02
  0.453125000       1.56250000E-02  -1.14162154E-02   2.43578281E-04   1.38579998E-02
  0.484375000       1.56250000E-02  -1.17856162E-02   1.24964296E-04   1.49037661E-02
  0.515625000       1.56250000E-02  -1.19047668E-02  -6.68444864E-06   1.60215702E-02
  0.546875000       1.56250000E-02  -1.17522692E-02  -1.46701990E-04   1.71670932E-02
  0.578125000       1.56250000E-02  -1.13170557E-02  -2.89417687E-04   1.82901286E-02
  0.609375000       1.56250000E-02  -1.06010158E-02  -4.27540479E-04   1.93385556E-02
  0.640625000       1.56250000E-02  -9.62220877E-03  -5.52189071E-04   2.02587452E-02
  0.671875000       1.56250000E-02  -8.41735490E-03  -6.53576921E-04   2.10000537E-02
  0.703125000       1.56250000E-02  -7.04265339E-03  -7.22015102E-04   2.15203203E-02
  0.734375000       1.56250000E-02  -5.57235209E-03  -7.49136962E-04   2.17916518E-02
  0.765625000       1.56250000E-02  -4.09477670E-03  -7.29231280E-04   2.18055993E-02
  0.796875000       1.56250000E-02  -2.70579429E-03  -6.60471909E-04   2.15769596E-02
  0.828125000       1.56250000E-02  -1.50006416E-03  -5.45896241E-04   2.11454909E-02
  0.859375000       1.56250000E-02  -5.60615212E-04  -3.94107105E-04   2.05753539E-02
  0.890625000       1.56250000E-02   5.31752157E-05  -2.20158094E-04   1.99524462E-02
  0.921875000       1.56250000E-02   3.20960331E-04  -4.80337767E-05   1.93796922E-02
  0.953125000       1.56250000E-02   2.86175549E-04   8.24603194E-05   1.89686548E-02
  0.984375000       1.56250000E-02   1.01772806E-04   1.01668717E-04   1.88180245E-02
   1.56250000E-02   4.68750000E-02  -9.14146949E-06  -1.48685649E-04   1.27119245E-02
   4.68750000E-02   4.68750000E-02  -2.86526221E-04   2.86077557E-04   1.24956723E-02
   7.81250000E-02   4.68750000E-02  -1.16106286E-03   9.34892567E-04   1.21587347E-02
  0.109375000       4.68750000E-02  -2.69994233E-03   1.56148663E-03   1.17809521E-02
  0.140625000       4.68750000E-02  -4.83584916E-03   2.07298156E-03   1.14264805E-02
  0.171875000       4.68750000E-02  -7.44220242E-03   2.44459021E-03   1.11407097E-02
  0.203125000       4.68750000E-02  -1.03762262E-02   2.68089771E-03   1.09531414E-02
  0.234375000       4.68750000E-02  -1.34998076E-02   2.79637566E-03   1.08819362E-02
  0.265625000       4.68750000E-02  -1.66869462E-02   2.80604977E-03   1.09379068E-02
  0.296875000       4.68750000E-02  -1.98241640E-02   2.72166915E-03   1.11272633E-02
  0.328125000       4.68750000E-02  -2.28079874E-02   2.55091605E-03   1.14530046E-02
  0.359375000       4.68750000E-02  -2.55419686E-02   2.29819794E-03   1.19152116E-02
  0.390625000       4.68750000E-02  -2.79346332E-02   1.96618470E-03   1.25105502E-02
  0.421875000       4.68750000E-02  -2.98989341E-02   1.55754632E-03   1.32313026E-02
  0.453125000       4.68750000E-02  -3.13534066E-02   1.07662170E-03   1.40642039E-02
  0.484375000       4.68750000E-02  -3.22249345E-02   5.30910853E-04   1.49893938E-02
  0.515625000       4.68750000E-02  -3.24529782E-02  -6.73932736E-05   1.59797315E-02
  0.546875000       4.68750000E-02  -3.19946483E-02  -6.98797463E-04   1.69931259E-02
  0.578125000       4.68750000E-02  -3.08310185E-02  -1.33817422E-03   1.79846920E-02
  0.609375000       4.68750000E-02  -2.89744418E-02  -1.95341976E-03   1.89089440E-02
  0.640625000       4.68750000E-02  -2.64750980E-02  -2.50648125E-03   1.97193306E-02
  0.671875000       4.68750000E-02  -2.34251507E-02  -2.95608072E-03   2.03724988E-02
  0.703125000       4.68750000E-02  -1.99595988E-02  -3.26170586E-03   2.08331794E-02
  0.734375000       4.68750000E-02  -1.62526481E-02  -3.38854827E-03   2.10791528E-02
  0.765625000       4.68750000E-02  -1.25088021E-02  -3.31296818E-03   2.11055148E-02
  0.796875000       4.68750000E-02  -8.94832239E-03  -3.02776624E-03   2.09274739E-02
  0.828125000       4.68750000E-02  -5.78742428E-03  -2.54662288E-03   2.05810834E-02
  0.859375000       4.68750000E-02  -3.21405218E-03  -1.90741778E-03   2.01216675E-02
  0.890625000       4.68750000E-02  -1.36021338E-03  -1.17552432E-03   1.96200144E-02
  0.921875000       4.68750000E-02  -2.71063269E-04  -4.50505730E-04   1.91566385E-02
  0.953125000       4.68750000E-02   1.30640852E-04   1.17212243E-04   1.88140403E-02
  0.984375000       4.68750000E-02   8.90686715E-05   2.92261189E-04   1.86673999E-02
   1.56250000E-02   7.81250000E-02  -1.74864341E-04   3.38701793E-05   1.31298732E-02
   4.68750000E-02   7.81250000E-02  -9.84067447E-04   1.18686561E-03   1.28246900E-02
   7.81250000E-02   7.81250000E-02  -2.73664109E-03   2.65767891E-03   1.24769369E-02
  0.109375000       7.81250000E-02  -5.41572552E-03   4.05324250E-03   1.21294521E-02
  0.140625000       7.81250000E-02  -8.90014973E-03   5.19826589E-03   1.18194828E-02
  0.171875000       7.81250000E-02  -1.30137280E-02   6.03608787E-03   1.15752723E-02
  0.203125000       7.81250000E-02  -1.75615828E-02   6.56827586E-03   1.14166467E-02
  0.234375000       7.81250000E-02  -2.23513898E-02   6.81952154E-03   1.13571063E-02
  0.265625000       7.81250000E-02  -2.72028111E-02   6.81873690E-03   1.14059178E-02
  0.296875000       7.81250000E-02  -3.19495909E-02   6.59038592E-03   1.15695624E-02
  0.328125000       7.81250000E-02  -3.64380926E-02   6.15205383E-03   1.18523277E-02
  0.359375000       7.81250000E-02  -4.05250117E-02   5.51558891E-03   1.22561753E-02
  0.390625000       7.81250000E-02  -4.40758578E-02   4.69001429E-03   1.27800275E-02
  0.421875000       7.81250000E-02  -4.69650999E-02   3.68504180E-03   1.34187536E-02
  0.453125000       7.81250000E-02  -4.90782112E-02   2.51453952E-03   1.41620161E-02
  0.484375000       7.81250000E-02  -5.03154807E-02   1.19964255E-03   1.49932802E-02
  0.515625000       7.81250000E-02  -5.05972132E-02  -2.28498800E-04   1.58892572E-02
  0.546875000       7.81250000E-02  -4.98694927E-02  -1.72588346E-03   1.68092027E-02
  0.578125000       7.81250000E-02  -4.81121391E-02  -3.23422812E-03   1.77118313E-02
  0.609375000       7.81250000E-02  -4.53481749E-02  -4.68005380E-03   1.85553841E-02
  0.640625000       7.81250000E-02  -4.16516736E-02  -5.97782619E-03   1.92968566E-02
  0.671875000       7.81250000E-02  -3.71527448E-02  -7.03571364E-03   1.98960826E-02
  0.703125000       7.81250000E-02  -3.20384949E-02  -7.76391476E-03   2.03204434E-02
  0.734375000       7.81250000E-02  -2.65485607E-02  -8.08515958E-03   2.05495618E-02
  0.765625000       7.81250000E-02  -2.09639743E-02  -7.94659555E-03   2.05791853E-02
  0.796875000       7.81250000E-02  -1.55885089E-02  -7.33172521E-03   2.04234868E-02
  0.828125000       7.81250000E-02  -1.07226186E-02  -6.27091527E-03   2.01151483E-02
  0.859375000       7.81250000E-02  -6.63101580E-03  -4.84938268E-03   1.97029244E-02
  0.890625000       7.81250000E-02  -3.50621296E-03  -3.21331271E-03   1.92469843E-02
  0.921875000       7.81250000E-02  -1.43125851E-03  -1.57778652E-03   1.88126843E-02
  0.953125000       7.81250000E-02  -3.45432869E-04  -2.43894901E-04   1.84637550E-02
  0.984375000       7.81250000E-02  -1.61158459E-05   3.64935200E-04   1.82562936E-02
   1.56250000E-02  0.109375000      -3.56166303E-04   5.63396083E-04   1.36295510E-02
   4.68750000E-02  0.109375000      -1.74904894E-03   2.85607437E-03   1.31944614E-02
   7.81250000E-02  0.109375000      -4.44510439E-03   5.43346163E-03   1.27888527E-02
  0.109375000      0.109375000      -8.29669274E-03   7.80461263E-03   1.24278292E-02
  0.140625000      0.109375000      -1.31028844E-02   9.73412208E-03   1.21262027E-02
  0.171875000      0.109375000      -1.86323691E-02   1.11400411E-02   1.18959360E-02
  0.203125000      0.109375000      -2.46455800E-02   1.20222755E-02   1.17461858E-02
  0.234375000      0.109375000      -3.09094377E-02   1.24162147E-02   1.16842650E-02
  0.265625000      0.109375000      -3.72044630E-02   1.23656681E-02   1.17165828E-02
  0.296875000      0.109375000      -4.33264859E-02   1.19095799E-02   1.18490662E-02
  0.328125000      0.109375000      -4.90855798E-02   1.10779144E-02   1.20870480E-02
  0.359375000      0.109375000      -5.43044247E-02   9.89307277E-03   1.24345589E-02
  0.390625000      0.109375000      -5.88175617E-02   8.37420300E-03   1.28932707E-02
  0.421875000      0.109375000      -6.24722391E-02   6.54255506E-03   1.34612378E-02
  0.453125000      0.109375000      -6.51310682E-02   4.42681788E-03   1.41315535E-02
  0.484375000      0.109375000      -6.66763410E-02   2.06780713E-03   1.48911960E-02
  0.515625000      0.109375000      -6.70156032E-02  -4.77747410E-04   1.57203116E-02
  0.546875000      0.109375000      -6.60877377E-02  -3.13428673E-03   1.65795125E-02
  0.578125000      0.109375000      -6.38714507E-02  -5.80151286E-03   1.74292326E-02
  0.609375000      0.109375000      -6.03955276E-02  -8.35469551E-03   1.82291940E-02
  0.640625000      0.109375000      -5.57473116E-02  -1.06499111E-02   1.89371388E-02
  0.671875000      0.109375000      -5.00787385E-02  -1.25330985E-02   1.95129346E-02
  0.703125000      0.109375000      -4.36083004E-02  -1.38531271E-02   1.99232679E-02
  0.734375000      0.109375000      -3.66173536E-02  -1.44786472E-02   2.01464817E-02
  0.765625000      0.109375000      -2.94390675E-02  -1.43176708E-02   2.01765299E-02
  0.796875000      0.109375000      -2.24386752E-02  -1.33380443E-02   2.00251993E-02
  0.828125000      0.109375000      -1.59844104E-02  -1.15861185E-02   1.97219159E-02
  0.859375000      0.109375000      -1.04103507E-02  -9.20103677E-03   1.93107892E-02
  0.890625000      0.109375000      -5.97447110E-03  -6.42337417E-03   1.88453086E-02
  0.921875000      0.109375000      -2.81779608E-03  -3.60024534E-03   1.83816571E-02
  0.953125000      0.109375000      -9.32540046E-04  -1.19330187E-03   1.79719701E-02
  0.984375000      0.109375000      -1.48352992E-04   2.00219365E-04   1.76585857E-02
   1.56250000E-02  0.140625000      -5.31774422E-04   1.44977076E-03   1.41074527E-02
   4.68750000E-02  0.140625000      -2.50195828E-03   5.32929320E-03   1.35286972E-02
   7.81250000E-02  0.140625000      -6.13897108E-03   9.28956177E-03   1.30415913E-02
  0.109375000      0.140625000      -1.11485627E-02   1.28060747E-02   1.26405135E-02
  0.140625000      0.140625000      -1.72342472E-02   1.56210531E-02   1.23219974E-02
  0.171875000      0.140625000      -2.41021067E-02   1.76471062E-02   1.20837418E-02
  0.203125000      0.140625000      -3.14688683E-02   1.88919809E-02   1.19248778E-02
  0.234375000      0.140625000      -3.90676148E-02   1.94060579E-02   1.18464828E-02
  0.265625000      0.140625000      -4.66498211E-02   1.92501657E-02   1.18518453E-02
  0.296875000      0.140625000      -5.39847054E-02   1.84792653E-02   1.19461892E-02
  0.328125000      0.140625000      -6.08573705E-02   1.71374213E-02   1.21358801E-02
  0.359375000      0.140625000      -6.70671910E-02   1.52598051E-02   1.24272527E-02
  0.390625000      0.140625000      -7.24273324E-02   1.28784711E-02   1.28250746E-02
  0.421875000      0.140625000      -7.67660588E-02   1.00295255E-02   1.33309895E-02
  0.453125000      0.140625000      -7.99296498E-02   6.76019024E-03   1.39418282E-02
  0.484375000      0.140625000      -8.17868784E-02   3.13492701E-03   1.46482028E-02
  0.515625000      0.140625000      -8.22345987E-02  -7.59849092E-04   1.54334577E-02
  0.546875000      0.140625000      -8.12039077E-02  -4.81268764E-03   1.62601117E-02
  0.578125000      0.140625000      -7.86684453E-02  -8.87677725E-03   1.70884077E-02
  0.609375000      0.140625000      -7.46546835E-02  -1.27710123E-02   1.78779494E-02
  0.640625000      0.140625000      -6.92515522E-02  -1.62868015E-02   1.85851343E-02
  0.671875000      0.140625000      -6.26181141E-02  -1.92000456E-02   1.91672761E-02
  0.703125000      0.140625000      -5.49877398E-02  -2.12887637E-02   1.95876025E-02
  0.734375000      0.140625000      -4.66669425E-02  -2.23564468E-02   1.98204052E-02
  0.765625000      0.140625000      -3.80265415E-02  -2.22601257E-02   1.98554713E-02
  0.796875000      0.140625000      -2.94830799E-02  -2.09408775E-02   1.97006743E-02
  0.828125000      0.140625000      -2.14690529E-02  -1.84528418E-02   1.93819385E-02
  0.859375000      0.140625000      -1.43927354E-02  -1.49857923E-02   1.89401936E-02
  0.890625000      0.140625000      -8.59131850E-03  -1.08768567E-02   1.84256360E-02
  0.921875000      0.140625000      -4.28526476E-03  -6.61028782E-03   1.78905874E-02
  0.953125000      0.140625000      -1.54495530E-03  -2.80950591E-03   1.73824355E-02
  0.984375000      0.140625000      -2.82450492E-04  -2.30784965E-04   1.69376303E-02
   1.56250000E-02  0.171875000      -6.95319672E-04   2.67523993E-03   1.44801121E-02
   4.68750000E-02  0.171875000      -3.21209012E-03   8.58718716E-03   1.37581341E-02
   7.81250000E-02  0.171875000      -7.74965156E-03   1.42023861E-02   1.31804049E-02
  0.109375000      0.171875000      -1.38683859E-02   1.90178677E-02   1.27248298E-02
  0.140625000      0.171875000      -2.11713091E-02   2.27943063E-02   1.23727946E-02
  0.171875000      0.171875000      -2.92982683E-02   2.54652537E-02   1.21098626E-02
  0.203125000      0.171875000      -3.79225910E-02   2.70616598E-02   1.19264591E-02
  0.234375000      0.171875000      -4.67476472E-02   2.76570953E-02   1.18181985E-02
  0.265625000      0.171875000      -5.55027723E-02   2.73335427E-02   1.17857056E-02
  0.296875000      0.171875000      -6.39388636E-02   2.61641424E-02   1.18337572E-02
  0.328125000      0.171875000      -7.18247145E-02   2.42085252E-02   1.19700544E-02
  0.359375000      0.171875000      -7.89445639E-02   2.15159953E-02   1.22034866E-02
  0.390625000      0.171875000      -8.50973576E-02   1.81330293E-02   1.25422869E-02
  0.421875000      0.171875000      -9.00980085E-02   1.41122770E-02   1.29919779E-02
  0.453125000      0.171875000      -9.37801450E-02   9.52123106E-03   1.35534201E-02
  0.484375000      0.171875000      -9.60005820E-02   4.44969768E-03   1.42210145E-02
  0.515625000      0.171875000      -9.66447219E-02  -9.84567101E-04   1.49813266E-02
  0.546875000      0.171875000      -9.56325829E-02  -6.63255341E-03   1.57998558E-02
  0.578125000      0.171875000      -9.29264426E-02  -1.23002389E-02   1.66349597E-02
  0.609375000      0.171875000      -8.85410011E-02  -1.77484527E-02   1.74450912E-02
  0.640625000      0.171875000      -8.25546980E-02  -2.27004699E-02   1.81836765E-02
  0.671875000      0.171875000      -7.51200169E-02  -2.68561430E-02   1.88033953E-02
  0.703125000      0.171875000      -6.64712340E-02  -2.99134254E-02   1.92614682E-02
  0.734375000      0.171875000      -5.69273680E-02  -3.15979868E-02   1.95254348E-02
  0.765625000      0.171875000      -4.68875617E-02  -3.17002237E-02   1.95783526E-02
  0.796875000      0.171875000      -3.68158072E-02  -3.01173124E-02   1.94222629E-02
  0.828125000      0.171875000      -2.72122845E-02  -2.68951207E-02   1.90788396E-02
  0.859375000      0.171875000      -1.85709242E-02  -2.22621895E-02   1.85867064E-02
  0.890625000      0.171875000      -1.13266967E-02  -1.66469384E-02   1.79956276E-02
  0.921875000      0.171875000      -5.80162928E-03  -1.06720114E-02   1.73588619E-02
  0.953125000      0.171875000      -2.16357666E-03  -5.12670074E-03   1.67253688E-02
  0.984375000      0.171875000      -4.13342146E-04  -9.26723122E-04   1.61332153E-02
   1.56250000E-02  0.203125000      -8.45040078E-04   4.21392545E-03   1.46782417E-02
   4.68750000E-02  0.203125000      -3.86710465E-03   1.25836544E-02   1.38205439E-02
   7.81250000E-02  0.203125000      -9.24368948E-03   2.01161318E-02   1.31515563E-02
  0.109375000      0.203125000      -1.63992792E-02   2.63746753E-02   1.26349330E-02
  0.140625000      0.203125000      -2.48393677E-02   3.11768986E-02   1.22390017E-02
  0.171875000      0.203125000      -3.41386497E-02   3.45054492E-02   1.19390013E-02
  0.203125000      0.203125000      -4.39289138E-02   3.64327729E-02   1.17181074E-02
  0.234375000      0.203125000      -5.38874269E-02   3.70664708E-02   1.15675917E-02
  0.265625000      0.203125000      -6.37265220E-02   3.65155041E-02   1.14861848E-02
  0.296875000      0.203125000      -7.31850341E-02   3.48741189E-02   1.14788339E-02
  0.328125000      0.203125000      -8.20219368E-02   3.22188586E-02   1.15549620E-02
  0.359375000      0.203125000      -9.00124311E-02   2.86137536E-02   1.17264474E-02
  0.390625000      0.203125000      -9.69463438E-02   2.41199285E-02   1.20052854E-02
  0.421875000      0.203125000     -0.102628723       1.88065153E-02   1.24012465E-02
  0.453125000      0.203125000     -0.106882349       1.27610303E-02   1.29195582E-02
  0.484375000      0.203125000     -0.109551750       6.09811116E-03   1.35587147E-02
  0.515625000      0.203125000     -0.110508300      -1.03385001E-03   1.43087748E-02
  0.546875000      0.203125000     -0.109656304      -8.44889693E-03   1.51399765E-02
  0.578125000      0.203125000     -0.106939465      -1.59083251E-02   1.60074756E-02
  0.609375000      0.203125000     -0.102350824      -2.31158920E-02   1.68680064E-02
  0.640625000      0.203125000      -9.59463716E-02  -2.97252089E-02   1.76709257E-02
  0.671875000      0.203125000      -8.78589600E-02  -3.53549086E-02   1.83624420E-02
  0.703125000      0.203125000      -7.83106983E-02  -3.96130905E-02   1.88913494E-02
  0.734375000      0.203125000      -6.76216781E-02  -4.21325490E-02   1.92155447E-02
  0.765625000      0.203125000      -5.62115684E-02  -4.26168442E-02   1.93084106E-02
  0.796875000      0.203125000      -4.45898026E-02  -4.08953801E-02   1.91635955E-02
  0.828125000      0.203125000      -3.33300158E-02  -3.69813964E-02   1.87970474E-02
  0.859375000      0.203125000      -2.30261423E-02  -3.11220139E-02   1.82452556E-02
  0.890625000      0.203125000      -1.42323636E-02  -2.38258280E-02   1.75597519E-02
  0.921875000      0.203125000      -7.39629101E-03  -1.58548132E-02   1.67988651E-02
  0.953125000      0.203125000      -2.80235731E-03  -8.17629602E-03   1.60187278E-02
  0.984375000      0.203125000      -5.44913171E-04  -1.88506173E-03   1.52651770E-02
   1.56250000E-02  0.234375000      -9.80164623E-04   6.03743037E-03   1.46421278E-02
   4.68750000E-02  0.234375000      -4.46045864E-03   1.72587819E-02   1.36598768E-02
   7.81250000E-02  0.234375000      -1.06015056E-02   2.69546770E-02   1.29038580E-02
  0.109375000      0.234375000      -1.87051911E-02   3.47916223E-02   1.23245269E-02
  0.140625000      0.234375000      -2.81874314E-02   4.06786725E-02   1.18785398E-02
  0.171875000      0.234375000      -3.85626256E-02   4.46747169E-02   1.15322489E-02
  0.203125000      0.234375000      -4.94248047E-02   4.69127148E-02   1.12629300E-02
  0.234375000      0.234375000      -6.04290590E-02   4.75462750E-02   1.10586360E-02
  0.265625000      0.234375000      -7.12752491E-02   4.67181951E-02   1.09171206E-02
  0.296875000      0.234375000      -8.16950947E-02   4.45472412E-02   1.08441804E-02
  0.328125000      0.234375000      -9.14428160E-02   4.11280692E-02   1.08515127E-02
  0.359375000      0.234375000     -0.100289151       3.65393236E-02   1.09543838E-02
  0.390625000      0.234375000     -0.108018428       3.08557246E-02   1.11689949E-02
  0.421875000      0.234375000     -0.114428177       2.41612270E-02   1.15097966E-02
  0.453125000      0.234375000     -0.119330853       1.65611822E-02   1.19868070E-02
  0.484375000      0.234375000     -0.122557327       8.19253176E-03   1.26031032E-02
  0.515625000      0.234375000     -0.123961709      -7.68551487E-04   1.33527517E-02
  0.546875000      0.234375000     -0.123427376      -1.01016797E-02   1.42133646E-02
  0.578125000      0.234375000     -0.120872319      -1.95285454E-02   1.51360631E-02
  0.609375000      0.234375000     -0.116258465      -2.86992639E-02   1.60759129E-02
  0.640625000      0.234375000     -0.109607905      -3.71979438E-02   1.69774797E-02
  0.671875000      0.234375000     -0.101020962      -4.45576496E-02   1.77790038E-02
  0.703125000      0.234375000      -9.06943306E-02  -5.02863526E-02   1.84184387E-02
  0.734375000      0.234375000      -7.89370462E-02  -5.39066866E-02   1.88409165E-02
  0.765625000      0.234375000      -6.61801919E-02  -5.50107248E-02   1.90065093E-02
  0.796875000      0.234375000      -5.29750958E-02  -5.33293374E-02   1.88970715E-02
  0.828125000      0.234375000      -3.99733931E-02  -4.88097891E-02   1.85203124E-02
  0.859375000      0.234375000      -2.78833658E-02  -4.16882373E-02   1.79097746E-02
  0.890625000      0.234375000      -1.74016356E-02  -3.25356796E-02   1.71200652E-02
  0.921875000      0.234375000      -9.12896637E-03  -2.22541131E-02   1.62180383E-02
  0.953125000      0.234375000      -3.49024171E-03  -1.20099066E-02   1.52718164E-02
  0.984375000      0.234375000      -6.84624363E-04  -3.11461627E-03   1.43400095E-02
   1.56250000E-02  0.265625000      -1.09979301E-03   8.11569206E-03   1.43191395E-02
   4.68750000E-02  0.265625000      -4.98660281E-03   2.25439146E-02   1.32256970E-02
   7.81250000E-02  0.265625000      -1.18078012E-02   3.46278623E-02   1.23896329E-02
  0.109375000      0.265625000      -2.07579527E-02   4.41685393E-02   1.17488466E-02
  0.140625000      0.265625000      -3.11741773E-02   5.11966720E-02   1.12492917E-02
  0.171875000      0.265625000      -4.25178856E-02   5.58722690E-02   1.08495979E-02
  0.203125000      0.265625000      -5.43506593E-02   5.84069937E-02   1.05222827E-02
  0.234375000      0.265625000      -6.63098693E-02   5.90125658E-02   1.02532124E-02
  0.265625000      0.265625000      -7.80872032E-02   5.78728057E-02   1.00400019E-02
  0.296875000      0.265625000      -8.94116312E-02   5.51345721E-02   9.88996588E-03
  0.328125000      0.265625000     -0.100036882       5.09116538E-02   9.81763192E-03
  0.359375000      0.265625000     -0.109733045       4.52964753E-02   9.84211452E-03
  0.390625000      0.265625000     -0.118281886       3.83751951E-02   9.98429488E-03
  0.421875000      0.265625000     -0.125475049       3.02433986E-02   1.02638053E-02
  0.453125000      0.265625000     -0.131114781       2.10203603E-02   1.06961085E-02
  0.484375000      0.265625000     -0.135016799       1.08609609E-02   1.12895006E-02
  0.515625000      0.265625000     -0.137014791      -3.53795622E-05   1.20425820E-02
  0.546875000      0.265625000     -0.136966184      -1.14185074E-02   1.29443966E-02
  0.578125000      0.265625000     -0.134756774      -2.29768567E-02   1.39415143E-02
  0.609375000      0.265625000     -0.130309224      -3.43130343E-02   1.49881653E-02
  0.640625000      0.265625000     -0.123600841      -4.49438095E-02   1.60239935E-02
  0.671875000      0.265625000     -0.114686698      -5.43136075E-02   1.69781465E-02
  0.703125000      0.265625000     -0.103724137      -6.18203618E-02   1.77753940E-02
  0.734375000      0.265625000      -9.09969062E-02  -6.68579862E-02   1.83445811E-02
  0.765625000      0.265625000      -7.69351050E-02  -6.88788742E-02   1.86281521E-02
  0.796875000      0.265625000      -6.21242002E-02  -6.74779415E-02   1.85916126E-02
  0.828125000      0.265625000      -4.72942740E-02  -6.24934696E-02   1.82305165E-02
  0.859375000      0.265625000      -3.32796909E-02  -5.41097112E-02   1.75732225E-02
  0.890625000      0.265625000      -2.09433716E-02  -4.29326519E-02   1.66775864E-02
  0.921875000      0.265625000      -1.10715460E-02  -3.00018694E-02   1.56216137E-02
  0.953125000      0.265625000      -4.26192256E-03  -1.67105682E-02   1.44897085E-02
  0.984375000      0.265625000      -8.41124333E-04  -4.64031054E-03   1.33576561E-02
   1.56250000E-02  0.296875000      -1.20266993E-03   1.04164984E-02   1.36628859E-02
   4.68750000E-02  0.296875000      -5.43954782E-03   2.83631757E-02   1.24731753E-02
   7.81250000E-02  0.296875000      -1.28479237E-02   4.30343561E-02   1.15656573E-02
  0.109375000      0.296875000      -2.25315914E-02   5.43922447E-02   1.08662890E-02
  0.140625000      0.296875000      -3.37611176E-02   6.26152977E-02   1.03111882E-02
  0.171875000      0.296875000      -4.59535271E-02   6.79865554E-02   9.85221937E-03
  0.203125000      0.296875000      -5.86440787E-02   7.08130747E-02   9.45810787E-03
  0.234375000      0.296875000      -7.14572519E-02   7.13761821E-02   9.11336392E-03
  0.265625000      0.296875000      -8.40809196E-02   6.99078143E-02   8.81616399E-03
  0.296875000      0.296875000      -9.62454528E-02   6.65864795E-02   8.57589580E-03
  0.328125000      0.296875000     -0.107708059       6.15458786E-02   8.41039140E-03
  0.359375000      0.296875000     -0.118241847       5.48908040E-02   8.34308285E-03
  0.390625000      0.296875000     -0.127628908       4.67156842E-02   8.40003416E-03
  0.421875000      0.296875000     -0.135656863       3.71232033E-02   8.60673748E-03
  0.453125000      0.296875000     -0.142118216       2.62410678E-02   8.98487214E-03
  0.484375000      0.296875000     -0.146812350       1.42360413E-02   9.54888575E-03
  0.515625000      0.296875000     -0.149549872       1.32480124E-03   1.03030633E-02
  0.546875000      0.296875000     -0.150158450      -1.22188758E-02   1.12503767E-02
  0.578125000      0.296875000     -0.148486838      -2.60576494E-02   1.23357894E-02
  0.609375000      0.296875000     -0.144411296      -3.97554934E-02   1.35139022E-02
  0.640625000      0.296875000     -0.137854785      -5.27664125E-02   1.47200059E-02
  0.671875000      0.296875000     -0.128814861      -6.44453466E-02   1.58734396E-02
  0.703125000      0.296875000     -0.117394455      -7.40719438E-02   1.68836862E-02
  0.734375000      0.296875000     -0.103835300      -8.08932185E-02   1.76595934E-02
  0.765625000      0.296875000      -8.85495991E-02  -8.41916129E-02   1.81208663E-02
  0.796875000      0.296875000      -7.21431077E-02  -8.33830684E-02   1.82106327E-02
  0.828125000      0.296875000      -5.54180630E-02  -7.81437308E-02   1.79066099E-02
  0.859375000      0.296875000      -3.93413529E-02  -6.85510784E-02   1.72278248E-02
  0.890625000      0.296875000      -2.49648672E-02  -5.52043021E-02   1.62338987E-02
  0.921875000      0.296875000      -1.32975318E-02  -3.92694324E-02   1.50156226E-02
  0.953125000      0.296875000      -5.15318103E-03  -2.23968588E-02   1.36776567E-02
  0.984375000      0.296875000      -1.02323061E-03  -6.50453754E-03   1.23174023E-02
   1.56250000E-02  0.328125000      -1.28731050E-03   1.29049011E-02   1.26333982E-02
   4.68750000E-02  0.328125000      -5.81293367E-03   3.46338339E-02   1.13636004E-02
   7.81250000E-02  0.328125000      -1.37073854E-02   5.20629063E-02   1.03941699E-02
  0.109375000      0.328125000      -2.40011010E-02   6.53376728E-02   9.63994209E-03
  0.140625000      0.328125000      -3.59108597E-02   7.48059675E-02   9.02812835E-03
  0.171875000      0.328125000      -4.88181971E-02   8.08926746E-02   8.50469526E-03
  0.203125000      0.328125000      -6.22384027E-02   8.40150267E-02   8.03534128E-03
  0.234375000      0.328125000      -7.57880136E-02   8.45346302E-02   7.60383997E-03
  0.265625000      0.328125000      -8.91554356E-02   8.27384070E-02   7.20944861E-03
  0.296875000      0.328125000     -0.102076650       7.88399726E-02   6.86398149E-03
  0.328125000      0.328125000     -0.114316538       7.29935914E-02   6.58892049E-03
  0.359375000      0.328125000     -0.125655189       6.53145909E-02   6.41242694E-03
  0.390625000      0.328125000     -0.135878593       5.59017733E-02   6.36628969E-03
  0.421875000      0.328125000     -0.144773021       4.48592380E-02   6.48259791E-03
  0.453125000      0.328125000     -0.152122736       3.23161297E-02   6.79022586E-03
  0.484375000      0.328125000     -0.157710820       1.84434354E-02   7.31104799E-03
  0.515625000      0.328125000     -0.161323085       3.46757355E-03   8.05615261E-03
  0.546875000      0.328125000     -0.162755221      -1.23204459E-02   9.04406887E-03
  0.578125000      0.328125000     -0.161815673      -2.85667740E-02   1.02242753E-02
  0.609375000      0.328125000     -0.158329293      -4.48078141E-02   1.15537252E-02
  0.640625000      0.328125000     -0.152157009      -6.04424477E-02   1.29646137E-02
  0.671875000      0.328125000     -0.143227220      -7.47387409E-02   1.43666873E-02
  0.703125000      0.328125000     -0.131572962      -8.68530720E-02   1.56525746E-02
  0.734375000      0.328125000     -0.117374420      -9.58697498E-02   1.67074092E-02
  0.765625000      0.328125000     -0.101004049     -0.100871205       1.74222514E-02
  0.796875000      0.328125000      -8.30666721E-02 -0.101047479       1.77104082E-02
  0.828125000      0.328125000      -6.44214824E-02  -9.58496928E-02   1.75238159E-02