 VARIABLES="X","Y","U","V","P"
 ZONE F=POINT, I=          40 , J=          40
   1.25000002E-02   1.25000002E-02   5.05289718E-05  -5.18843808E-05   1.31466044E-02
   3.75000015E-02   1.25000002E-02   1.24805956E-04  -2.55608884E-05   1.30230384E-02
   6.25000000E-02   1.25000002E-02   9.71079135E-05   4.96731191E-05   1.27383601E-02
   8.75000060E-02   1.25000002E-02  -8.98488506E-05   1.33794980E-04   1.23668080E-02
  0.112500004       1.25000002E-02  -4.37030336E-04   2.10021215E-04   1.19729508E-02
  0.137500003       1.25000002E-02  -9.22794803E-04   2.72512843E-04   1.16038555E-02
  0.162500009       1.25000002E-02  -1.51864695E-03   3.20247316E-04   1.12910625E-02
  0.187500000       1.25000002E-02  -2.19602347E-03   3.54171585E-04   1.10545233E-02
  0.212500006       1.25000002E-02  -2.92889960E-03   3.75873380E-04   1.09062577E-02
  0.237500012       1.25000002E-02  -3.69443744E-03   3.86950065E-04   1.08531713E-02
  0.262499988       1.25000002E-02  -4.47272789E-03   3.88731074E-04   1.08990446E-02
  0.287499994       1.25000002E-02  -5.24615683E-03   3.82180035E-04   1.10457744E-02
  0.312500000       1.25000002E-02  -5.99868037E-03   3.67903034E-04   1.12940278E-02
  0.337500006       1.25000002E-02  -6.71517942E-03   3.46214947E-04   1.16434488E-02
  0.362499982       1.25000002E-02  -7.38096423E-03   3.17232101E-04   1.20925196E-02
  0.387499988       1.25000002E-02  -7.98148476E-03   2.80976936E-04   1.26382187E-02
  0.412499994       1.25000002E-02  -8.50225054E-03   2.37482891E-04   1.32755600E-02
  0.437500000       1.25000002E-02  -8.92893970E-03   1.86885183E-04   1.39970705E-02
  0.462500006       1.25000002E-02  -9.24767647E-03   1.29502005E-04   1.47922989E-02
  0.487499982       1.25000002E-02  -9.44548100E-03   6.59061552E-05   1.56473499E-02
  0.512499988       1.25000002E-02  -9.51089337E-03  -2.95011841E-06   1.65444724E-02
  0.537500024       1.25000002E-02  -9.43516009E-03  -7.53109562E-05   1.74602680E-02
  0.562500000       1.25000002E-02  -9.21320915E-03  -1.49240281E-04   1.83688849E-02
  0.587499976       1.25000002E-02  -8.84419400E-03  -2.22446601E-04   1.92436334E-02
  0.612500012       1.25000002E-02  -8.33229721E-03  -2.92183773E-04   2.00566240E-02
  0.637499988       1.25000002E-02  -7.68752908E-03  -3.55362194E-04   2.07800549E-02
  0.662500024       1.25000002E-02  -6.92623109E-03  -4.08738619E-04   2.13878267E-02
  0.687500000       1.25000002E-02  -6.07116241E-03  -4.49134590E-04   2.18574330E-02
  0.712499976       1.25000002E-02  -5.15110372E-03  -4.73697903E-04   2.21718587E-02
  0.737500012       1.25000002E-02  -4.19995235E-03  -4.80168470E-04   2.23213602E-02
  0.762499988       1.25000002E-02  -3.25527601E-03  -4.67135134E-04   2.23049540E-02
  0.787500024       1.25000002E-02  -2.35639652E-03  -4.34258720E-04   2.21314114E-02
  0.812500000       1.25000002E-02  -1.54209929E-03  -3.82420782E-04   2.18197219E-02
  0.837499976       1.25000002E-02  -8.48080614E-04  -3.13835044E-04   2.13989392E-02
  0.862500012       1.25000002E-02  -3.04202142E-04  -2.32133112E-04   2.09075417E-02
  0.887499988       1.25000002E-02   6.85826599E-05  -1.42604345E-04   2.03924105E-02
  0.912500024       1.25000002E-02   2.62235320E-04  -5.28830751E-05   1.99073795E-02
  0.937500000       1.25000002E-02   2.88094045E-04   2.52808659E-05   1.95108932E-02
  0.962499976       1.25000002E-02   1.88603895E-04   7.25197824E-05   1.92601625E-02
  0.987500012       1.25000002E-02   5.76239836E-05   5.70961492E-05   1.91944502E-02
   1.25000002E-02   3.75000015E-02   2.39426408E-05  -1.29555818E-04   1.32715646E-02
   3.75000015E-02   3.75000015E-02  -3.38398568E-05   2.83019235E-05   1.31461658E-02
   6.25000000E-02   3.75000015E-02  -3.69623012E-04   3.51146940E-04   1.29072051E-02
   8.75000060E-02   3.75000015E-02  -1.06582488E-03   7.07539089E-04   1.26054715E-02
  0.112500004       3.75000015E-02  -2.12543085E-03   1.03538227E-03   1.22862719E-02
  0.137500003       3.75000015E-02  -3.50905536E-03   1.30914245E-03   1.19853504E-02
  0.162500009       3.75000015E-02  -5.15836012E-03   1.52167049E-03   1.17287049E-02
  0.187500000       3.75000015E-02  -7.00954394E-03   1.67449622E-03   1.15341805E-02
  0.212500006       3.75000015E-02  -9.00031067E-03   1.77265459E-03   1.14135146E-02
  0.237500012       3.75000015E-02  -1.10728228E-02   1.82194065E-03   1.13741979E-02
  0.262499988       3.75000015E-02  -1.31743625E-02   1.82753243E-03   1.14208851E-02
  0.287499994       3.75000015E-02  -1.52568016E-02   1.79342018E-03   1.15563581E-02
  0.312500000       3.75000015E-02  -1.72755793E-02   1.72231882E-03   1.17820539E-02
  0.337500006       3.75000015E-02  -1.91886388E-02   1.61586143E-03   1.20982397E-02
  0.362499982       3.75000015E-02  -2.09556073E-02   1.47495128E-03   1.25039276E-02
  0.387499988       3.75000015E-02  -2.25373115E-02   1.30017288E-03   1.29965991E-02
  0.412499994       3.75000015E-02  -2.38957573E-02   1.09221984E-03   1.35718230E-02
  0.437500000       3.75000015E-02  -2.49945037E-02   8.52293335E-04   1.42228417E-02
  0.462500006       3.75000015E-02  -2.57994607E-02   5.82452980E-04   1.49401613E-02
  0.487499982       3.75000015E-02  -2.62800604E-02   2.85945483E-04   1.57112293E-02
  0.512499988       3.75000015E-02  -2.64107883E-02  -3.23755485E-05   1.65202655E-02
  0.537500024       3.75000015E-02  -2.61729304E-02  -3.65140033E-04   1.73449218E-02
  0.562500000       3.75000015E-02  -2.55564451E-02  -7.03649246E-04   1.81617141E-02
  0.587499976       3.75000015E-02  -2.45620180E-02  -1.03741861E-03   1.89469364E-02
  0.612500012       3.75000015E-02  -2.32029930E-02  -1.35419006E-03   1.96758658E-02
  0.637499988       3.75000015E-02  -2.15068460E-02  -1.64041086E-03   2.03240328E-02
  0.662500024       3.75000015E-02  -1.95160341E-02  -1.88198208E-03   2.08687317E-02
  0.687500000       3.75000015E-02  -1.72879882E-02  -2.06518453E-03   2.12906785E-02
  0.712499976       3.75000015E-02  -1.48940505E-02  -2.17775581E-03   2.15756856E-02
  0.737500012       3.75000015E-02  -1.24172615E-02  -2.21002824E-03   2.17161700E-02
  0.762499988       3.75000015E-02  -9.94896702E-03  -2.15603458E-03   2.17123777E-02
  0.787500024       3.75000015E-02  -7.58426916E-03  -2.01448565E-03   2.15731524E-02
  0.812500000       3.75000015E-02  -5.41649945E-03  -1.78952934E-03   2.13161185E-02
  0.837499976       3.75000015E-02  -3.53090675E-03  -1.49130030E-03   2.09673513E-02
  0.862500012       3.75000015E-02  -1.99770276E-03  -1.13640365E-03   2.05604360E-02
  0.887499988       3.75000015E-02  -8.64402042E-04  -7.48785678E-04   2.01351177E-02
  0.912500024       3.75000015E-02  -1.47017883E-04  -3.61855695E-04   1.97353661E-02
  0.937500000       3.75000015E-02   1.80758652E-04  -2.33099690E-05   1.94067601E-02
  0.962499976       3.75000015E-02   2.01764749E-04   1.95782864E-04   1.91925410E-02
  0.987500012       3.75000015E-02   7.49858154E-05   1.88433100E-04   1.91291310E-02
   1.25000002E-02   6.25000000E-02  -5.36873013E-05  -1.03539889E-04   1.35631803E-02
   3.75000015E-02   6.25000000E-02  -3.69654386E-04   3.67660890E-04   1.33836232E-02
   6.25000000E-02   6.25000000E-02  -1.15058757E-03   1.11930328E-03   1.31389583E-02
   8.75000060E-02   6.25000000E-02  -2.45105638E-03   1.92706566E-03   1.28610665E-02
  0.112500004       6.25000000E-02  -4.25738003E-03   2.67305877E-03   1.25797698E-02
  0.137500003       6.25000000E-02  -6.51311874E-03   3.30238999E-03   1.23198470E-02
  0.162500009       6.25000000E-02  -9.13931057E-03   3.79578257E-03   1.21003184E-02
  0.187500000       6.25000000E-02  -1.20483451E-02   4.15276922E-03   1.19350012E-02
  0.212500006       6.25000000E-02  -1.51523203E-02   4.38158354E-03   1.18335793E-02
  0.237500012       6.25000000E-02  -1.83672979E-02   4.49324585E-03   1.18027218E-02
  0.262499988       6.25000000E-02  -2.16148496E-02   4.49833134E-03   1.18470062E-02
  0.287499994       6.25000000E-02  -2.48220004E-02   4.40547056E-03   1.19695505E-02
  0.312500000       6.25000000E-02  -2.79204268E-02   4.22095228E-03   1.21723432E-02
  0.337500006       6.25000000E-02  -3.08454819E-02   3.94900888E-03   1.24563277E-02
  0.362499982       6.25000000E-02  -3.35353911E-02   3.59250349E-03   1.28212655E-02
  0.387499988       6.25000000E-02  -3.59309167E-02   3.15378816E-03   1.32654738E-02
  0.412499994       6.25000000E-02  -3.79754677E-02   2.63561471E-03   1.37854600E-02
  0.437500000       6.25000000E-02  -3.96158025E-02   2.04201625E-03   1.43755265E-02
  0.462500006       6.25000000E-02  -4.08031680E-02   1.37908361E-03   1.50274206E-02
  0.487499982       6.25000000E-02  -4.14949656E-02   6.55692653E-04   1.57300700E-02
  0.512499988       6.25000000E-02  -4.16566655E-02  -1.15795425E-04   1.64694861E-02
  0.537500024       6.25000000E-02  -4.12638336E-02  -9.18612117E-04   1.72238573E-02
  0.562500000       6.25000000E-02  -4.03046459E-02  -1.73217431E-03   1.79715473E-02
  0.587499976       6.25000000E-02  -3.87827531E-02  -2.53164279E-03   1.86908729E-02
  0.612500012       6.25000000E-02  -3.67198363E-02  -3.28844087E-03   1.93591472E-02
  0.637499988       6.25000000E-02  -3.41573879E-02  -3.97135690E-03   1.99539065E-02
  0.662500024       6.25000000E-02  -3.11577171E-02  -4.54814360E-03   2.04543602E-02
  0.687500000       6.25000000E-02  -2.78038289E-02  -4.98756208E-03   2.08429489E-02
  0.712499976       6.25000000E-02  -2.41979398E-02  -5.26173273E-03   2.11069081E-02
  0.737500012       6.25000000E-02  -2.04584766E-02  -5.34868566E-03   2.12396551E-02
  0.762499988       6.25000000E-02  -1.67154539E-02  -5.23487991E-03   2.12418623E-02
  0.787500024       6.25000000E-02  -1.31042283E-02  -4.91750287E-03   2.11220365E-02
  0.812500000       6.25000000E-02  -9.75780562E-03  -4.40636091E-03   2.08965465E-02
  0.837499976       6.25000000E-02  -6.79791858E-03  -3.72529798E-03   2.05890425E-02
  0.862500012       6.25000000E-02  -4.32520732E-03  -2.91336095E-03   2.02292725E-02
  0.887499988       6.25000000E-02  -2.40877108E-03  -2.02631811E-03   1.98514666E-02
  0.912500024       6.25000000E-02  -1.07527943E-03  -1.13970181E-03   1.94922835E-02
  0.937500000       6.25000000E-02  -2.97778839E-04  -3.55055614E-04   1.91884860E-02
  0.962499976       6.25000000E-02   1.58237781E-05   1.88723527E-04   1.89745426E-02
  0.987500012       6.25000000E-02   3.62993378E-05   2.98250816E-04   1.88815296E-02
   1.25000002E-02   8.75000060E-02  -1.46935927E-04   9.32573894E-05   1.39510054E-02
   3.75000015E-02   8.75000060E-02  -7.69363891E-04   1.10068533E-03   1.36863366E-02
   6.25000000E-02   8.75000060E-02  -2.06063734E-03   2.44909036E-03   1.34028587E-02
   8.75000060E-02   8.75000060E-02  -4.01866995E-03   3.84660484E-03   1.31172454E-02
  0.112500004       8.75000060E-02  -6.59585791E-03   5.12810890E-03   1.28465742E-02
  0.137500003       8.75000060E-02  -9.71202273E-03   6.21059537E-03   1.26057155E-02
  0.162500009       8.75000060E-02  -1.32681392E-02   7.06152339E-03   1.24065503E-02
  0.187500000       8.75000060E-02  -1.71572994E-02   7.67714903E-03   1.22580947E-02
  0.212500006       8.75000060E-02  -2.12721117E-02   8.06820672E-03   1.21670458E-02
  0.237500012       8.75000060E-02  -2.55088955E-02   8.25088564E-03   1.21384216E-02
  0.262499988       8.75000060E-02  -2.97694672E-02   8.24159198E-03   1.21761020E-02
  0.287499994       8.75000060E-02  -3.39613967E-02   8.05432629E-03   1.22831436E-02
  0.312500000       8.75000060E-02  -3.79974619E-02   7.69986585E-03   1.24619259E-02
  0.337500006       8.75000060E-02  -4.17949036E-02   7.18609197E-03   1.27140880E-02
  0.362499982       8.75000060E-02  -4.52748872E-02   6.51900191E-03   1.30403005E-02
  0.387499988       8.75000060E-02  -4.83622998E-02   5.70407091E-03   1.34399440E-02
  0.412499994       8.75000060E-02  -5.09861633E-02   4.74770134E-03   1.39107276E-02
  0.437500000       8.75000060E-02  -5.30805215E-02   3.65864253E-03   1.44482553E-02
  0.462500006       8.75000060E-02  -5.45858853E-02   2.44925171E-03   1.50456904E-02
  0.487499982       8.75000060E-02  -5.54511212E-02   1.13660388E-03   1.56934373E-02
  0.512499988       8.75000060E-02  -5.56355380E-02  -2.56586442E-04   1.63790695E-02
  0.537500024       8.75000060E-02  -5.51111065E-02  -1.70113682E-03   1.70812365E-02
  0.562500000       8.75000060E-02  -5.38653359E-02  -3.16074677E-03   1.77795254E-02
  0.587499976       8.75000060E-02  -5.19045740E-02  -4.59194323E-03   1.84534658E-02
  0.612500012       8.75000060E-02  -4.92567420E-02  -5.94518241E-03   1.90814454E-02
  0.637499988       8.75000060E-02  -4.59734276E-02  -7.16672000E-03   1.96419097E-02
  0.662500024       8.75000060E-02  -4.21309993E-02  -8.20123032E-03   2.01147739E-02
  0.687500000       8.75000060E-02  -3.78305316E-02  -8.99514928E-03   2.04829909E-02
  0.712499976       8.75000060E-02  -3.31962295E-02  -9.50057153E-03   2.07340773E-02
  0.737500012       8.75000060E-02  -2.83721015E-02  -9.67954099E-03   2.08614729E-02
  0.762499988       8.75000060E-02  -2.35166885E-02  -9.50837415E-03   2.08655614E-02
  0.787500024       8.75000060E-02  -1.87958721E-02  -8.98173638E-03   2.07541659E-02
  0.812500000       8.75000060E-02  -1.43737607E-02  -8.11608322E-03   2.05424465E-02
  0.837499976       8.75000060E-02  -1.04020610E-02  -6.95230067E-03   2.02521216E-02
  0.862500012       8.75000060E-02  -7.00835232E-03  -5.55763068E-03   1.99100971E-02
  0.887499988       8.75000060E-02  -4.28396417E-03  -4.02745977E-03   1.95466317E-02
  0.912500024       8.75000060E-02  -2.27225618E-03  -2.48811208E-03   1.91932209E-02
  0.937500000       8.75000060E-02  -9.58242628E-04  -1.10232818E-03   1.88804325E-02
  0.962499976       8.75000060E-02  -2.60482077E-04  -7.94194275E-05   1.86360069E-02
  0.987500012       8.75000060E-02  -2.55600371E-05   3.07582435E-04   1.84837580E-02
   1.25000002E-02  0.112500004      -2.41672620E-04   4.77915310E-04   1.43708130E-02
   3.75000015E-02  0.112500004      -1.18150376E-03   2.26946292E-03   1.40071083E-02
   6.25000000E-02  0.112500004      -3.00449855E-03   4.38494980E-03   1.36657758E-02
   8.75000060E-02  0.112500004      -5.63981850E-03   6.49470789E-03   1.33520598E-02
  0.112500004      0.112500004      -8.99461471E-03   8.40285886E-03   1.30727170E-02
  0.137500003      0.112500004      -1.29579846E-02   1.00065190E-02   1.28340209E-02
  0.162500009      0.112500004      -1.74083598E-02   1.12635111E-02   1.26411673E-02
  0.187500000      0.112500004      -2.22204886E-02   1.21681560E-02   1.24983052E-02
  0.212500006      0.112500004      -2.72705741E-02   1.27341002E-02   1.24088274E-02
  0.237500012      0.112500004      -3.24393697E-02   1.29828649E-02   1.23757366E-02
  0.262499988      0.112500004      -3.76134999E-02   1.29368957E-02   1.24018798E-02
  0.287499994      0.112500004      -4.26856279E-02   1.26159415E-02   1.24900630E-02
  0.312500000      0.112500004      -4.75540198E-02   1.20358448E-02   1.26429694E-02
  0.337500006      0.112500004      -5.21219894E-02   1.12089198E-02   1.28629617E-02
  0.362499982      0.112500004      -5.62975109E-02   1.01452973E-02   1.31517351E-02
  0.387499988      0.112500004      -5.99932820E-02   8.85478035E-03   1.35099031E-02
  0.412499994      0.112500004      -6.31273016E-02   7.34884711E-03   1.39365541E-02
  0.437500000      0.112500004      -6.56239688E-02   5.64260315E-03   1.44287646E-02
  0.462500006      0.112500004      -6.74156621E-02   3.75650544E-03   1.49811907E-02
  0.487499982      0.112500004      -6.84446990E-02   1.71781192E-03   1.55857205E-02
  0.512499988      0.112500004      -6.86656013E-02  -4.38303861E-04   1.62313096E-02
  0.537500024      0.112500004      -6.80473298E-02  -2.66797561E-03   1.68971792E-02
  0.562500000      0.112500004      -6.65763393E-02  -4.91656689E-03   1.75634436E-02
  0.587499976      0.112500004      -6.42600283E-02  -7.11915642E-03   1.82102211E-02
  0.612500012      0.112500004      -6.11296743E-02  -9.20217484E-03   1.88161898E-02
  0.637499988      0.112500004      -5.72427437E-02  -1.10860281E-02   1.93598103E-02
  0.662500024      0.112500004      -5.26843444E-02  -1.26888081E-02   1.98207237E-02
  0.687500000      0.112500004      -4.75674346E-02  -1.39309783E-02   2.01813653E-02
  0.712499976      0.112500004      -4.20314558E-02  -1.47409709E-02   2.04285327E-02
  0.737500012      0.112500004      -3.62391397E-02  -1.50614120E-02   2.05548257E-02
  0.762499988      0.112500004      -3.03711314E-02  -1.48555748E-02   2.05596574E-02
  0.787500024      0.112500004      -2.46183220E-02  -1.41135938E-02   2.04497874E-02
  0.812500000      0.112500004      -1.91719607E-02  -1.28578804E-02   2.02391334E-02
  0.837499976      0.112500004      -1.42118065E-02  -1.11472663E-02   1.99478883E-02
  0.862500012      0.112500004      -9.89304762E-03  -9.07976739E-03   1.96009837E-02
  0.887499988      0.112500004      -6.33293018E-03  -6.79420820E-03   1.92260891E-02
  0.912500024      0.112500004      -3.59844323E-03  -4.47170716E-03   1.88514031E-02
  0.937500000      0.112500004      -1.69664365E-03  -2.33850768E-03   1.85034946E-02
  0.962499976      0.112500004      -5.69341588E-04  -6.72135211E-04   1.82054602E-02
  0.987500012      0.112500004      -9.39396923E-05   1.86764591E-04   1.79755241E-02
   1.25000002E-02  0.137500003      -3.32816766E-04   1.04831881E-03   1.47696016E-02
   3.75000015E-02  0.137500003      -1.58388575E-03   3.88086401E-03   1.43029857E-02
   6.25000000E-02  0.137500003      -3.93467583E-03   6.93745026E-03   1.38943810E-02
   8.75000060E-02  0.137500003      -7.24311359E-03   9.87635553E-03   1.35404076E-02
  0.112500004      0.137500003      -1.13655422E-02   1.24891028E-02   1.32394452E-02
  0.137500003      0.137500003      -1.61555391E-02   1.46645866E-02   1.29904142E-02
  0.162500009      0.137500003      -2.14663744E-02   1.63578838E-02   1.27925258E-02
  0.187500000      0.137500003      -2.71541066E-02   1.75651647E-02   1.26453768E-02
  0.212500006      0.137500003      -3.30800042E-02   1.83049068E-02   1.25491358E-02
  0.237500012      0.137500003      -3.91119234E-02   1.86049081E-02   1.25047499E-02
  0.262499988      0.137500003      -4.51246500E-02   1.84941553E-02   1.25139803E-02
  0.287499994      0.137500003      -5.09996079E-02   1.79985277E-02   1.25793293E-02
  0.312500000      0.137500003      -5.66242523E-02   1.71393640E-02   1.27037950E-02
  0.337500006      0.137500003      -6.18914962E-02   1.59339756E-02   1.28905084E-02
  0.362499982      0.137500003      -6.66994601E-02   1.43973604E-02   1.31422952E-02
  0.387499988      0.137500003      -7.09516630E-02   1.25445593E-02   1.34611428E-02
  0.412499994      0.137500003      -7.45576844E-02   1.03931883E-02   1.38476538E-02
  0.437500000      0.137500003      -7.74344131E-02   7.96589255E-03   1.43004889E-02
  0.462500006      0.137500003      -7.95076638E-02   5.29250409E-03   1.48158763E-02
  0.487499982      0.137500003      -8.07141960E-02   2.41180067E-03   1.53871765E-02
  0.512499988      0.137500003      -8.10039490E-02  -6.27199421E-04   1.60046406E-02
  0.537500024      0.137500003      -8.03423971E-02  -3.76448105E-03   1.66483261E-02
  0.562500000      0.137500003      -7.87134618E-02  -6.92556705E-03   1.72981620E-02
  0.587499976      0.137500003      -7.61231333E-02  -1.00224288E-02   1.79343726E-02
  0.612500012      0.137500003      -7.26025552E-02  -1.29555222E-02   1.85353551E-02
  0.637499988      0.137500003      -6.82107881E-02  -1.56170987E-02   1.90788135E-02
  0.662500024      0.137500003      -6.30367324E-02  -1.78959146E-02   1.95432939E-02
  0.687500000      0.137500003      -5.71999475E-02  -1.96832754E-02   1.99098065E-02
  0.712499976      0.137500003      -5.08498698E-02  -2.08803713E-02   2.01635342E-02
  0.737500012      0.137500003      -4.41631377E-02  -2.14065872E-02   2.02953704E-02
  0.762499988      0.137500003      -3.73385474E-02  -2.12083589E-02   2.03030761E-02
  0.787500024      0.137500003      -3.05894203E-02  -2.02679001E-02   2.01918781E-02
  0.812500000      0.137500003      -2.41332650E-02  -1.86110139E-02   1.99743193E-02
  0.837499976      0.137500003      -1.81790590E-02  -1.63131524E-02   1.96693428E-02
  0.862500012      0.137500003      -1.29129291E-02  -1.35031585E-02   1.93006489E-02
  0.887499988      0.137500003      -8.48346576E-03  -1.03645306E-02   1.88945606E-02
  0.912500024      0.137500003      -4.98842262E-03  -7.13481195E-03   1.84776969E-02
  0.937500000      0.137500003      -2.46493006E-03  -4.10439307E-03   1.80747323E-02
  0.962499976      0.137500003      -8.85499408E-04  -1.61653303E-03   1.77064948E-02
  0.987500012      0.137500003      -1.62154582E-04  -7.05304410E-05   1.73885021E-02
   1.25000002E-02  0.162500009      -4.18744516E-04   1.79566420E-03   1.51037220E-02
   3.75000015E-02  0.162500009      -1.96726294E-03   5.92374988E-03   1.45356981E-02
   6.25000000E-02  0.162500009      -4.82777972E-03   1.00957500E-02   1.40564991E-02
   8.75000060E-02  0.162500009      -8.78921524E-03   1.39781199E-02   1.36558432E-02
  0.112500004      0.162500009      -1.36557706E-02   1.73668098E-02   1.33250859E-02
  0.137500003      0.162500009      -1.92433037E-02   2.01551877E-02   1.30568221E-02
  0.162500009      0.162500009      -2.53783427E-02   2.23042406E-02   1.28449956E-02
  0.187500000      0.162500009      -3.18978801E-02   2.38174666E-02   1.26851257E-02
  0.212500006      0.162500009      -3.86491008E-02   2.47214325E-02   1.25744678E-02
  0.237500012      0.162500009      -4.54887860E-02   2.50520278E-02   1.25120841E-02
  0.262499988      0.162500009      -5.22823930E-02   2.48457585E-02   1.24987792E-02
  0.287499994      0.162500009      -5.89029714E-02   2.41351966E-02   1.25368228E-02
  0.312500000      0.162500009      -6.52301237E-02   2.29475796E-02   1.26296077E-02
  0.337500006      0.162500009      -7.11493045E-02   2.13056095E-02   1.27811395E-02
  0.362499982      0.162500009      -7.65514821E-02   1.92296095E-02   1.29954806E-02
  0.387499988      0.162500009      -8.13333243E-02   1.67403873E-02   1.32761048E-02
  0.412499994      0.162500009      -8.53979513E-02   1.38623035E-02   1.36252567E-02
  0.437500000      0.162500009      -8.86561424E-02   1.06261894E-02   1.40432771E-02
  0.462500006      0.162500009      -9.10279602E-02   7.07191741E-03   1.45280464E-02
  0.487499982      0.162500009      -9.24447253E-02   3.25043802E-03   1.50744291E-02
  0.512499988      0.162500009      -9.28512961E-02  -7.74706539E-04   1.56739615E-02
  0.537500024      0.162500009      -9.22083557E-02  -4.92664892E-03   1.63080059E-02
  0.562500000      0.162500009      -9.04952735E-02  -9.11059044E-03   1.69555824E-02
  0.587499976      0.162500009      -8.77135694E-02  -1.32146645E-02   1.75967216E-02
  0.612500012      0.162500009      -8.38904977E-02  -1.71122104E-02   1.82090439E-02
  0.637499988      0.162500009      -7.90823549E-02  -2.06656326E-02   1.87689345E-02
  0.662500024      0.162500009      -7.33771697E-02  -2.37319544E-02   1.92530937E-02
  0.687500000      0.162500009      -6.68963566E-02  -2.61701569E-02   1.96402743E-02
  0.712499976      0.162500009      -5.97949848E-02  -2.78502200E-02   1.99131593E-02
  0.737500012      0.162500009      -5.22599779E-02  -2.86636651E-02   2.00600605E-02
  0.762499988      0.162500009      -4.45058569E-02  -2.85350289E-02   2.00762972E-02
  0.787500024      0.162500009      -3.67675051E-02  -2.74335630E-02   1.99649930E-02
  0.812500000      0.162500009      -2.92897113E-02  -2.53839307E-02   1.97370425E-02
  0.837499976      0.162500009      -2.23137606E-02  -2.24747676E-02   1.94102656E-02
  0.862500012      0.162500009      -1.60617512E-02  -1.88637916E-02   1.90077424E-02
  0.887499988      0.162500009      -1.07201645E-02  -1.47787947E-02   1.85555667E-02
  0.912500024      0.162500009      -6.42479910E-03  -1.05145574E-02   1.80803631E-02
  0.937500000      0.162500009      -3.24963289E-03  -6.42669061E-03   1.76069140E-02
  0.962499976      0.162500009      -1.20232266E-03  -2.92418455E-03   1.71561316E-02
  0.987500012      0.162500009      -2.28713528E-04  -4.62460623E-04   1.67435203E-02
   1.25000002E-02  0.187500000      -4.98999201E-04   2.70908140E-03   1.53361317E-02
   3.75000015E-02  0.187500000      -2.32769083E-03   8.37797020E-03   1.46710183E-02
   6.25000000E-02  0.187500000      -5.67185692E-03   1.38359014E-02   1.41216340E-02
   8.75000060E-02  0.187500000      -1.02556702E-02   1.87732540E-02   1.36716962E-02
  0.112500004      0.187500000      -1.58325434E-02   2.30054632E-02   1.33064073E-02
  0.137500003      0.187500000      -2.21806057E-02   2.64428016E-02   1.30127789E-02
  0.162500009      0.187500000      -2.90994123E-02   2.90614665E-02   1.27801439E-02
  0.187500000      0.187500000      -3.64070348E-02   3.08787227E-02   1.26004526E-02
  0.212500006      0.187500000      -4.39373665E-02   3.19333971E-02   1.24684386E-02
  0.237500012      0.187500000      -5.15375733E-02   3.22719924E-02   1.23816030E-02
  0.262499988      0.187500000      -5.90657219E-02   3.19399759E-02   1.23399803E-02
  0.287499994      0.187500000      -6.63887560E-02   3.09774019E-02   1.23458114E-02
  0.312500000      0.187500000      -7.33808503E-02   2.94178352E-02   1.24030234E-02
  0.337500006      0.187500000      -7.99223185E-02   2.72896141E-02   1.25166150E-02
  0.362499982      0.187500000      -8.58991295E-02   2.46185604E-02   1.26920193E-02
  0.387499988      0.187500000      -9.12029147E-02   2.14313939E-02   1.29343066E-02
  0.412499994      0.187500000      -9.57316831E-02   1.77593343E-02   1.32474797E-02
  0.437500000      0.187500000      -9.93909538E-02   1.36414915E-02   1.36337075E-02
  0.462500006      0.187500000     -0.102095261       9.12780501E-03   1.40925944E-02
  0.487499982      0.187500000     -0.103770137       4.28140443E-03   1.46206226E-02
  0.512499988      0.187500000     -0.104354277      -8.19667126E-04   1.52106620E-02
  0.537500024      0.187500000     -0.103801906      -6.08166307E-03   1.58460625E-02
  0.562500000      0.187500000     -0.102085322      -1.13898944E-02   1.65042952E-02
  0.587499976      0.187500000      -9.91983637E-02  -1.66087169E-02   1.71650164E-02
  0.612500012      0.187500000      -9.51604918E-02  -2.15838477E-02   1.78047493E-02
  0.637499988      0.187500000      -9.00208876E-02  -2.61465516E-02   1.83980651E-02
  0.662500024      0.187500000      -8.38621110E-02  -3.01198624E-02   1.89191513E-02
  0.687500000      0.187500000      -7.68029764E-02  -3.33270617E-02   1.93437189E-02
  0.712499976      0.187500000      -6.90001473E-02  -3.56023610E-02   1.96510199E-02
  0.737500012      0.187500000      -6.06477000E-02  -3.68037559E-02   1.98258348E-02
  0.762499988      0.187500000      -5.19740507E-02  -3.68273705E-02   1.98601410E-02
  0.787500024      0.187500000      -4.32355516E-02  -3.56225818E-02   1.97541956E-02
  0.812500000      0.187500000      -3.47062647E-02  -3.32062952E-02   1.95167940E-02
  0.837499976      0.187500000      -2.66639031E-02  -2.96747759E-02   1.91645958E-02
  0.862500012      0.187500000      -1.93726104E-02  -2.52108835E-02   1.87204964E-02
  0.887499988      0.187500000      -1.30641703E-02  -2.00852584E-02   1.82113275E-02
  0.912500024      0.187500000      -7.92010408E-03  -1.46507928E-02   1.76651813E-02
  0.937500000      0.187500000      -4.05773148E-03  -9.33102332E-03   1.71087906E-02
  0.962499976      0.187500000      -1.52331218E-03  -4.60440014E-03   1.65652446E-02
  0.987500012      0.187500000      -2.94676516E-04  -9.86755244E-04   1.60522796E-02
   1.25000002E-02  0.212500006      -5.73410769E-04   3.77708906E-03   1.54343378E-02
   3.75000015E-02  0.212500006      -2.66309828E-03   1.12186242E-02   1.46780116E-02
   6.25000000E-02  0.212500006      -6.45987503E-03   1.81257613E-02   1.40611129E-02
   8.75000060E-02  0.212500006      -1.16282161E-02   2.42254995E-02   1.35617871E-02
  0.112500004      0.212500006      -1.78737286E-02   2.93659028E-02   1.31595824E-02
  0.137500003      0.212500006      -2.49384083E-02   3.34857404E-02   1.28364926E-02
  0.162500009      0.212500006      -3.25957537E-02   3.65856588E-02   1.25777554E-02
  0.187500000      0.212500006      -4.06457484E-02   3.87034863E-02   1.23722460E-02
  0.212500006      0.212500006      -4.89100069E-02   3.98949571E-02   1.22125968E-02
  0.237500012      0.212500006      -5.72274327E-02   4.02201936E-02   1.20950658E-02
  0.262499988      0.212500006      -6.54503703E-02   3.97354178E-02   1.20192338E-02
  0.287499994      0.212500006      -7.34415054E-02   3.84891331E-02   1.19874999E-02
  0.312500000      0.212500006      -8.10715407E-02   3.65216881E-02   1.20045207E-02
  0.337500006      0.212500006      -8.82175714E-02   3.38671729E-02   1.20764468E-02
  0.362499982      0.212500006      -9.47622508E-02   3.05568166E-02   1.22102126E-02
  0.387499988      0.212500006     -0.100593574       2.66229995E-02   1.24126505E-02
  0.412499994      0.212500006     -0.105605401       2.21034419E-02   1.26896445E-02
  0.437500000      0.212500006     -0.109698385       1.70450471E-02   1.30453147E-02
  0.462500006      0.212500006     -0.112781465       1.15072746E-02   1.34811699E-02
  0.487499982      0.212500006     -0.114773639       5.56480838E-03   1.39954388E-02
  0.512499988      0.212500006     -0.115606129      -6.90506364E-04   1.45824626E-02
  0.537500024      0.212500006     -0.115224726      -7.14859972E-03   1.52285676E-02
  0.562500000      0.212500006     -0.113592163      -1.36760967E-02   1.59091037E-02
  0.587499976      0.212500006     -0.110691294      -2.01143734E-02   1.66033208E-02
  0.612500012      0.212500006     -0.106529877      -2.62815692E-02   1.72864590E-02
  0.637499988      0.212500006     -0.101145618      -3.19768712E-02   1.79308876E-02
  0.662500024      0.212500006      -9.46110561E-02  -3.69871520E-02   1.85077023E-02