 VARIABLES="X","Y","U","V","P"
 ZONE F=POINT, I=          40 , J=          40
   1.25000002E-02   1.25000002E-02   3.36857156E-05  -3.47550631E-05   8.61972570E-03
   3.75000015E-02   1.25000002E-02   7.25394057E-05  -6.60317710E-06   8.51998571E-03
   6.25000000E-02   1.25000002E-02   2.26545562E-05   5.36333901E-05   8.31231754E-03
   8.75000060E-02   1.25000002E-02  -1.50912878E-04   1.17117030E-04   8.05655308E-03
  0.112500004       1.25000002E-02  -4.43651574E-04   1.72851884E-04   7.80140376E-03
  0.137500003       1.25000002E-02  -8.36723601E-04   2.17505163E-04   7.58118276E-03
  0.162500009       1.25000002E-02  -1.30773755E-03   2.50853831E-04   7.41836336E-03
  0.187500000       1.25000002E-02  -1.83502608E-03   2.73841113E-04   7.32682273E-03
  0.212500006       1.25000002E-02  -2.39913631E-03   2.87736388E-04   7.31453346E-03
  0.237500012       1.25000002E-02  -2.98311445E-03   2.93767691E-04   7.38555472E-03
  0.262499988       1.25000002E-02  -3.57226841E-03   2.92966666E-04   7.54140830E-03
  0.287499994       1.25000002E-02  -4.15372662E-03   2.86120077E-04   7.78196566E-03
  0.312500000       1.25000002E-02  -4.71595209E-03   2.73775513E-04   8.10594577E-03
  0.337500006       1.25000002E-02  -5.24829794E-03   2.56275031E-04   8.51113163E-03
  0.362499982       1.25000002E-02  -5.74065465E-03   2.33812811E-04   8.99437442E-03
  0.387499988       1.25000002E-02  -6.18321169E-03   2.06492652E-04   9.55144409E-03
  0.412499994       1.25000002E-02  -6.56634523E-03   1.74396977E-04   1.01768151E-02
  0.437500000       1.25000002E-02  -6.88063214E-03   1.37644543E-04   1.08633786E-02
  0.462500006       1.25000002E-02  -7.11698458E-03   9.64513456E-05   1.16021801E-02
  0.487499982       1.25000002E-02  -7.26689212E-03   5.11818434E-05   1.23821739E-02
  0.512499988       1.25000002E-02  -7.32279103E-03   2.41913517E-06   1.31899919E-02
  0.537500024       1.25000002E-02  -7.27869384E-03  -4.88391415E-05   1.40091572E-02
  0.562500000       1.25000002E-02  -7.13085663E-03  -1.01348320E-04   1.48211718E-02
  0.587499976       1.25000002E-02  -6.87821396E-03  -1.53666580E-04   1.56070236E-02
  0.612500012       1.25000002E-02  -6.52287062E-03  -2.04062468E-04   1.63468942E-02
  0.637499988       1.25000002E-02  -6.07063156E-03  -2.50566576E-04   1.70209315E-02
  0.662500024       1.25000002E-02  -5.53138508E-03  -2.91059841E-04   1.76102221E-02
  0.687500000       1.25000002E-02  -4.91927983E-03  -3.23399610E-04   1.80979222E-02
  0.712499976       1.25000002E-02  -4.25262935E-03  -3.45561653E-04   1.84704959E-02
  0.737500012       1.25000002E-02  -3.55350925E-03  -3.55806464E-04   1.87188722E-02
  0.762499988       1.25000002E-02  -2.84703728E-03  -3.52835254E-04   1.88395437E-02
  0.787500024       1.25000002E-02  -2.16033868E-03  -3.35940043E-04   1.88354068E-02
  0.812500000       1.25000002E-02  -1.52125163E-03  -3.05122812E-04   1.87163446E-02
  0.837499976       1.25000002E-02  -9.56811302E-04  -2.61188718E-04   1.84995141E-02
  0.862500012       1.25000002E-02  -4.91539133E-04  -2.05852441E-04   1.82093568E-02
  0.887499988       1.25000002E-02  -1.45423299E-04  -1.41940400E-04   1.78774856E-02
  0.912500024       1.25000002E-02   6.88666623E-05  -7.39475945E-05   1.75424255E-02
  0.937500000       1.25000002E-02   1.50740292E-04  -9.46543696E-06   1.72489434E-02
  0.962499976       1.25000002E-02   1.21140969E-04   3.75634445E-05   1.70455836E-02
  0.987500012       1.25000002E-02   4.14171191E-05   4.09533823E-05   1.69750713E-02
   1.25000002E-02   3.75000015E-02   5.20160393E-06  -7.61639239E-05   8.72057956E-03
   3.75000015E-02   3.75000015E-02  -7.70739061E-05   7.24534329E-05   8.61978624E-03
   6.25000000E-02   3.75000015E-02  -3.86570318E-04   3.27488640E-04   8.44825711E-03
   8.75000060E-02   3.75000015E-02  -9.71382542E-04   5.95255115E-04   8.24514125E-03
  0.112500004       3.75000015E-02  -1.82484929E-03   8.34639417E-04   8.04461539E-03
  0.137500003       3.75000015E-02  -2.91249086E-03   1.03027560E-03   7.87311234E-03
  0.162500009       3.75000015E-02  -4.18836344E-03   1.17894751E-03   7.74953980E-03
  0.187500000       3.75000015E-02  -5.60405664E-03   1.28284376E-03   7.68660195E-03
  0.212500006       3.75000015E-02  -7.11315218E-03   1.34619093E-03   7.69231468E-03
  0.237500012       3.75000015E-02  -8.67304206E-03   1.37356238E-03   7.77132530E-03
  0.262499988       3.75000015E-02  -1.02452757E-02   1.36906444E-03   7.92592671E-03
  0.287499994       3.75000015E-02  -1.17951725E-02   1.33599294E-03   8.15674383E-03
  0.312500000       3.75000015E-02  -1.32911075E-02   1.27677445E-03   8.46315082E-03
  0.337500006       3.75000015E-02  -1.47037543E-02   1.19305984E-03   8.84347875E-03
  0.362499982       3.75000015E-02  -1.60054378E-02   1.08592282E-03   9.29502398E-03
  0.387499988       3.75000015E-02  -1.71697047E-02   9.56102100E-04   9.81395971E-03
  0.412499994       3.75000015E-02  -1.81711353E-02   8.04269686E-04   1.03951534E-02
  0.437500000       3.75000015E-02  -1.89854540E-02   6.31297240E-04   1.10319620E-02
  0.462500006       3.75000015E-02  -1.95899121E-02   4.38509625E-04   1.17160184E-02
  0.487499982       3.75000015E-02  -1.99639425E-02   2.27925018E-04   1.24370744E-02
  0.512499988       3.75000015E-02  -2.00900659E-02   2.51566576E-06   1.31829018E-02
  0.537500024       3.75000015E-02  -1.99549980E-02  -2.33335842E-04   1.39379315E-02
  0.562500000       3.75000015E-02  -1.95508823E-02  -4.74099157E-04   1.46849826E-02
  0.587499976       3.75000015E-02  -1.88766271E-02  -7.13152811E-04   1.54069327E-02
  0.612500012       3.75000015E-02  -1.79392099E-02  -9.42702987E-04   1.60859879E-02
  0.637499988       3.75000015E-02  -1.67547427E-02  -1.15400832E-03   1.67044848E-02
  0.662500024       3.75000015E-02  -1.53492000E-02  -1.33775640E-03   1.72457732E-02
  0.687500000       3.75000015E-02  -1.37587097E-02  -1.48458872E-03   1.76952537E-02
  0.712499976       3.75000015E-02  -1.20292073E-02  -1.58571533E-03   1.80414431E-02
  0.737500012       3.75000015E-02  -1.02154147E-02  -1.63361547E-03   1.82770081E-02
  0.762499988       3.75000015E-02  -8.37905239E-03  -1.62273669E-03   1.83996633E-02
  0.787500024       3.75000015E-02  -6.58629369E-03  -1.55016314E-03   1.84128545E-02
  0.812500000       3.75000015E-02  -4.90452908E-03  -1.41619111E-03   1.83261614E-02
  0.837499976       3.75000015E-02  -3.39847105E-03  -1.22482271E-03   1.81553848E-02
  0.862500012       3.75000015E-02  -2.12564878E-03  -9.84288519E-04   1.79223344E-02
  0.887499988       3.75000015E-02  -1.13112514E-03  -7.07912841E-04   1.76543072E-02
  0.912500024       3.75000015E-02  -4.40963893E-04  -4.16018476E-04   1.73832588E-02
  0.937500000       3.75000015E-02  -5.34840110E-05  -1.40206830E-04   1.71443950E-02
  0.962499976       3.75000015E-02   7.31881446E-05   6.78583528E-05   1.69737898E-02
  0.987500012       3.75000015E-02   3.97645199E-05   1.21023462E-04   1.69049203E-02
   1.25000002E-02   6.25000000E-02  -5.61954657E-05  -2.80894419E-05   8.93276185E-03
   3.75000015E-02   6.25000000E-02  -3.38819402E-04   3.82705126E-04   8.79091490E-03
   6.25000000E-02   6.25000000E-02  -9.87628358E-04   9.68273962E-04   8.61587469E-03
   8.75000060E-02   6.25000000E-02  -2.02737702E-03   1.57185562E-03   8.43080878E-03
  0.112500004       6.25000000E-02  -3.43833677E-03   2.11540959E-03   8.25786404E-03
  0.137500003       6.25000000E-02  -5.17315976E-03   2.56504910E-03   8.11550021E-03
  0.162500009       6.25000000E-02  -7.17056915E-03   2.91067897E-03   8.01781844E-03
  0.187500000       6.25000000E-02  -9.36464593E-03   3.15425452E-03   7.97489565E-03
  0.212500006       6.25000000E-02  -1.16903456E-02   3.30309803E-03   7.99350441E-03
  0.237500012       6.25000000E-02  -1.40862856E-02   3.36614880E-03   8.07788968E-03
  0.262499988       6.25000000E-02  -1.64957289E-02   3.35195707E-03   8.23040679E-03
  0.287499994       6.25000000E-02  -1.88665353E-02   3.26773105E-03   8.45200941E-03
  0.312500000       6.25000000E-02  -2.11505666E-02   3.11904168E-03   8.74250848E-03
  0.337500006       6.25000000E-02  -2.33029388E-02   2.90994556E-03   9.10073332E-03
  0.362499982       6.25000000E-02  -2.52813473E-02   2.64334027E-03   9.52450186E-03
  0.387499988       6.25000000E-02  -2.70456076E-02   2.32148170E-03   1.00105340E-02
  0.412499994       6.25000000E-02  -2.85575446E-02   1.94655918E-03   1.05542839E-02
  0.437500000       6.25000000E-02  -2.97811888E-02   1.52128725E-03   1.11497510E-02
  0.462500006       6.25000000E-02  -3.06833778E-02   1.04947714E-03   1.17893061E-02
  0.487499982       6.25000000E-02  -3.12346928E-02   5.36583480E-04   1.24635622E-02
  0.512499988       6.25000000E-02  -3.14106718E-02  -9.79509969E-06   1.31613323E-02
  0.537500024       6.25000000E-02  -3.11932042E-02  -5.79364249E-04   1.38676949E-02
  0.562500000       6.25000000E-02  -3.05721760E-02  -1.15906959E-03   1.45664178E-02
  0.587499976       6.25000000E-02  -2.95473784E-02  -1.73312740E-03   1.52416751E-02
  0.612500012       6.25000000E-02  -2.81302445E-02  -2.28319317E-03   1.58769991E-02
  0.637499988       6.25000000E-02  -2.63452493E-02  -2.78889341E-03   1.64560862E-02
  0.662500024       6.25000000E-02  -2.42308676E-02  -3.22867464E-03   1.69636123E-02
  0.687500000       6.25000000E-02  -2.18398757E-02  -3.58096464E-03   1.73862483E-02
  0.712499976       6.25000000E-02  -1.92388371E-02  -3.82557372E-03   1.77136157E-02
  0.737500012       6.25000000E-02  -1.65066607E-02  -3.94526729E-03   1.79392621E-02
  0.762499988       6.25000000E-02  -1.37320515E-02  -3.92740546E-03   1.80614460E-02
  0.787500024       6.25000000E-02  -1.10099055E-02  -3.76552204E-03   1.80836990E-02
  0.812500000       6.25000000E-02  -8.43662862E-03  -3.46074766E-03   1.80150904E-02
  0.837499976       6.25000000E-02  -6.10450190E-03  -3.02306842E-03   1.78701375E-02
  0.862500012       6.25000000E-02  -4.09515947E-03  -2.47257412E-03   1.76683310E-02
  0.887499988       6.25000000E-02  -2.47225305E-03  -1.84119469E-03   1.74333304E-02
  0.912500024       6.25000000E-02  -1.27323868E-03  -1.17585796E-03   1.71917826E-02
  0.937500000       6.25000000E-02  -5.00175753E-04  -5.44706942E-04   1.69717483E-02
  0.962499976       6.25000000E-02  -1.09524764E-04  -4.86622957E-05   1.68006755E-02
  0.987500012       6.25000000E-02  -5.87993782E-07   1.58922543E-04   1.67035554E-02
   1.25000002E-02   8.75000060E-02  -1.24490587E-04   1.49640677E-04   9.19883605E-03
   3.75000015E-02   8.75000060E-02  -6.30236755E-04   9.86689702E-04   8.99532810E-03
   6.25000000E-02   8.75000060E-02  -1.64831174E-03   2.02381541E-03   8.79272446E-03
   8.75000060E-02   8.75000060E-02  -3.16175167E-03   3.06224241E-03   8.60247295E-03
  0.112500004       8.75000060E-02  -5.12678782E-03   3.99387721E-03   8.43719766E-03
  0.137500003       8.75000060E-02  -7.47962855E-03   4.76723583E-03   8.30824673E-03
  0.162500009       8.75000060E-02  -1.01450607E-02   5.36446646E-03   8.22478626E-03
  0.187500000       8.75000060E-02  -1.30436206E-02   5.78638073E-03   8.19369219E-03
  0.212500006       8.75000060E-02  -1.60965137E-02   6.04298851E-03   8.21982510E-03
  0.237500012       8.75000060E-02  -1.92284547E-02   6.14770083E-03   8.30640271E-03
  0.262499988       8.75000060E-02  -2.23688781E-02   6.11397531E-03   8.45538080E-03
  0.287499994       8.75000060E-02  -2.54521295E-02   5.95359877E-03   8.66770465E-03
  0.312500000       8.75000060E-02  -2.84170210E-02   5.67604601E-03   8.94346647E-03
  0.337500006       8.75000060E-02  -3.12062055E-02   5.28855110E-03   9.28192027E-03
  0.362499982       8.75000060E-02  -3.37655619E-02   4.79664141E-03   9.68144555E-03
  0.387499988       8.75000060E-02  -3.60438414E-02   4.20493539E-03   1.01394095E-02
  0.412499994       8.75000060E-02  -3.79926115E-02   3.51807661E-03   1.06519563E-02
  0.437500000       8.75000060E-02  -3.95666063E-02   2.74170609E-03   1.12138558E-02
  0.462500006       8.75000060E-02  -4.07244749E-02   1.88342249E-03   1.18183047E-02
  0.487499982       8.75000060E-02  -4.14298698E-02   9.53652430E-04   1.24567663E-02
  0.512499988       8.75000060E-02  -4.16528992E-02  -3.35715231E-05   1.31189656E-02
  0.537500024       8.75000060E-02  -4.13717069E-02  -1.05999212E-03   1.37905227E-02
  0.562500000       8.75000060E-02  -4.05744612E-02  -2.10248935E-03   1.44557506E-02
  0.587499976       8.75000060E-02  -3.92615646E-02  -3.13320151E-03   1.50995962E-02
  0.612500012       8.75000060E-02  -3.74476388E-02  -4.11998061E-03   1.57063138E-02
  0.637499988       8.75000060E-02  -3.51632163E-02  -5.02731279E-03   1.62602495E-02
  0.662500024       8.75000060E-02  -3.24558504E-02  -5.81775326E-03   1.67466290E-02
  0.687500000       8.75000060E-02  -2.93905325E-02  -6.45386986E-03   1.71525665E-02
  0.712499976       8.75000060E-02  -2.60491669E-02  -6.90062996E-03   1.74680203E-02
  0.737500012       8.75000060E-02  -2.25288533E-02  -7.12810364E-03   1.76866930E-02
  0.762499988       8.75000060E-02  -1.89389251E-02  -7.11431820E-03   1.78068280E-02
  0.787500024       8.75000060E-02  -1.53965931E-02  -6.84807729E-03   1.78316738E-02
  0.812500000       8.75000060E-02  -1.20212696E-02  -6.33154390E-03   1.77696627E-02
  0.837499976       8.75000060E-02  -8.92765913E-03  -5.58251236E-03   1.76341608E-02
  0.862500012       8.75000060E-02  -6.21787924E-03  -4.63650795E-03   1.74428057E-02
  0.887499988       8.75000060E-02  -3.97292804E-03  -3.54914693E-03   1.72164701E-02
  0.912500024       8.75000060E-02  -2.24393699E-03  -2.39974819E-03   1.69778839E-02
  0.937500000       8.75000060E-02  -1.04385882E-03  -1.29764422E-03   1.67499445E-02
  0.962499976       8.75000060E-02  -3.40613944E-04  -3.93203780E-04   1.65538304E-02
  0.987500012       8.75000060E-02  -5.30967955E-05   1.04004219E-04   1.64071731E-02
   1.25000002E-02  0.112500004      -1.90527469E-04   4.61656076E-04   9.47119109E-03
   3.75000015E-02  0.112500004      -9.17739235E-04   1.90087385E-03   9.19835083E-03
   6.25000000E-02  0.112500004      -2.30705715E-03   3.50955827E-03   8.95516761E-03
   8.75000060E-02  0.112500004      -4.29381151E-03   5.06933220E-03   8.74513760E-03
  0.112500004      0.112500004      -6.80336449E-03   6.45413529E-03   8.57367553E-03
  0.137500003      0.112500004      -9.75124724E-03   7.60059291E-03   8.44621006E-03
  0.162500009      0.112500004      -1.30470693E-02   8.48539732E-03   8.36739782E-03
  0.187500000      0.112500004      -1.65988691E-02   9.10898298E-03   8.34088773E-03
  0.212500006      0.112500004      -2.03165412E-02   9.48426966E-03   8.36938899E-03
  0.237500012      0.112500004      -2.41139904E-02   9.62927006E-03   8.45480338E-03
  0.262499988      0.112500004      -2.79101208E-02   9.56256315E-03   8.59842263E-03
  0.287499994      0.112500004      -3.16289552E-02   9.30083171E-03   8.80099274E-03
  0.312500000      0.112500004      -3.51992548E-02   8.85786861E-03   9.06274468E-03
  0.337500006      0.112500004      -3.85539420E-02   8.24458059E-03   9.38334595E-03
  0.362499982      0.112500004      -4.16295826E-02   7.46969692E-03   9.76174697E-03
  0.387499988      0.112500004      -4.43660989E-02   6.54084980E-03   1.01960050E-02
  0.412499994      0.112500004      -4.67068031E-02   5.46588376E-03   1.06830532E-02
  0.437500000      0.112500004      -4.85988557E-02   4.25424427E-03   1.12185031E-02
  0.462500006      0.112500004      -4.99940962E-02   2.91832234E-03   1.17963962E-02
  0.487499982      0.112500004      -5.08502796E-02   1.47469074E-03   1.24090724E-02
  0.512499988      0.112500004      -5.11326566E-02  -5.48504358E-05   1.30470321E-02
  0.537500024      0.112500004      -5.08157313E-02  -1.64248748E-03   1.36964303E-02
  0.562500000      0.112500004      -4.98854741E-02  -3.25316051E-03   1.43416449E-02
  0.587499976      0.112500004      -4.83417362E-02  -4.84483875E-03   1.49679696E-02
  0.612500012      0.112500004      -4.62004654E-02  -6.36920705E-03   1.55598670E-02
  0.637499988      0.112500004      -4.34956327E-02  -7.77299050E-03   1.61017347E-02
  0.662500024      0.112500004      -4.02806476E-02  -9.00002010E-03   1.65786929E-02
  0.687500000      0.112500004      -3.66290212E-02  -9.99405514E-03   1.69776082E-02
  0.712499976      0.112500004      -3.26339602E-02  -1.07022729E-02   1.72880627E-02
  0.737500012      0.112500004      -2.84066759E-02  -1.10793039E-02   1.75033286E-02
  0.762499988      0.112500004      -2.40732394E-02  -1.10915396E-02   1.76211242E-02
  0.787500024      0.112500004      -1.97697897E-02  -1.07214749E-02   1.76440962E-02
  0.812500000      0.112500004      -1.56361386E-02  -9.97172110E-03   1.75799448E-02
  0.837499976      0.112500004      -1.18079465E-02  -8.86849221E-03   1.74410660E-02
  0.862500012      0.112500004      -8.40781815E-03  -7.46454438E-03   1.72437653E-02
  0.887499988      0.112500004      -5.53594809E-03  -5.84181305E-03   1.70070380E-02
  0.912500024      0.112500004      -3.26115545E-03  -4.11455194E-03   1.67510752E-02
  0.937500000      0.112500004      -1.61349296E-03  -2.43410747E-03   1.64955072E-02
  0.962499976      0.112500004      -5.80078515E-04  -9.96814109E-04   1.62575468E-02
  0.987500012      0.112500004      -1.06286825E-04  -5.65486189E-05   1.60501972E-02
   1.25000002E-02  0.137500003      -2.51830905E-04   9.00960527E-04   9.71337408E-03
   3.75000015E-02  0.137500003      -1.18977716E-03   3.11985565E-03   9.37021710E-03
   6.25000000E-02  0.137500003      -2.93873809E-03   5.42127015E-03   9.08038206E-03
   8.75000060E-02  0.137500003      -5.38685080E-03   7.58501515E-03   8.84205103E-03
  0.112500004      0.137500003      -8.42575729E-03   9.47957020E-03   8.65526870E-03
  0.137500003      0.137500003      -1.19474009E-02   1.10374792E-02   8.52068141E-03
  0.162500009      0.137500003      -1.58445723E-02   1.22344438E-02   8.43905099E-03
  0.187500000      0.137500003      -2.00126506E-02   1.30728967E-02   8.41105543E-03
  0.212500006      0.137500003      -2.43512690E-02   1.35698728E-02   8.43728799E-03
  0.237500012      0.137500003      -2.87653841E-02   1.37486048E-02   8.51828977E-03
  0.262499988      0.137500003      -3.31656411E-02   1.36331394E-02   8.65457766E-03
  0.287499994      0.137500003      -3.74681950E-02   1.32453106E-02   8.84662010E-03
  0.312500000      0.137500003      -4.15941700E-02   1.26034683E-02   9.09474306E-03
  0.337500006      0.137500003      -4.54690456E-02   1.17224809E-02   9.39900149E-03
  0.362499982      0.137500003      -4.90221381E-02   1.06145926E-02   9.75893624E-03
  0.387499988      0.137500003      -5.21863326E-02   9.29083675E-03   1.01733375E-02
  0.412499994      0.137500003      -5.48981801E-02   7.76271755E-03   1.06399860E-02
  0.437500000      0.137500003      -5.70984036E-02   6.04402926E-03   1.11553809E-02
  0.462500006      0.137500003      -5.87328114E-02   4.15258761E-03   1.17144668E-02
  0.487499982      0.137500003      -5.97536080E-02   2.11185357E-03   1.23104155E-02
  0.512499988      0.137500003      -6.01210371E-02  -4.77404428E-05   1.29344976E-02
  0.537500024      0.137500003      -5.98053336E-02  -2.28775525E-03   1.35734174E-02
  0.562500000      0.137500003      -5.87890707E-02  -4.55993041E-03   1.42110977E-02
  0.587499976      0.137500003      -5.70697561E-02  -6.80663157E-03   1.48328394E-02
  0.612500012      0.137500003      -5.46623059E-02  -8.96163844E-03   1.54228965E-02
  0.637499988      0.137500003      -5.16013317E-02  -1.09518366E-02   1.59652121E-02
  0.662500024      0.137500003      -4.79429960E-02  -1.26999058E-02   1.64442174E-02
  0.687500000      0.137500003      -4.37660664E-02  -1.41280526E-02   1.68459024E-02
  0.712499976      0.137500003      -3.91719155E-02  -1.51627073E-02   1.71588734E-02
  0.737500012      0.137500003      -3.42831053E-02  -1.57400295E-02   1.73753761E-02
  0.762499988      0.137500003      -2.92403102E-02  -1.58119276E-02   1.74921229E-02
  0.787500024      0.137500003      -2.41973400E-02  -1.53521746E-02   1.75108500E-02
  0.812500000      0.137500003      -1.93142742E-02  -1.43621694E-02   1.74384285E-02
  0.837499976      0.137500003      -1.47488378E-02  -1.28758550E-02   1.72864720E-02
  0.862500012      0.137500003      -1.06465667E-02  -1.09635126E-02   1.70704685E-02
  0.887499988      0.137500003      -7.13056326E-03  -8.73441435E-03   1.68084651E-02
  0.912500024      0.137500003      -4.29202896E-03  -6.33876491E-03   1.65194385E-02
  0.937500000      0.137500003      -2.18313420E-03  -3.96976480E-03   1.62215345E-02
  0.962499976      0.137500003      -8.14090832E-04  -1.86679862E-03   1.59302577E-02
  0.987500012      0.137500003      -1.56588387E-04  -3.20506952E-04   1.56568140E-02
   1.25000002E-02  0.162500009      -3.08331830E-04   1.45801669E-03   9.89738479E-03
   3.75000015E-02  0.162500009      -1.44413474E-03   4.62956261E-03   9.48585942E-03
   6.25000000E-02  0.162500009      -3.53603251E-03   7.74471927E-03   9.14728083E-03
   8.75000060E-02  0.162500009      -6.42807782E-03   1.05941473E-02   8.87611695E-03
  0.112500004      0.162500009      -9.97799821E-03   1.30518293E-02   8.66830442E-03
  0.137500003      0.162500009      -1.40528325E-02   1.50544075E-02   8.52063857E-03
  0.162500009      0.162500009      -1.85274314E-02   1.65821444E-02   8.43058340E-03
  0.187500000      0.162500009      -2.32841298E-02   1.76429842E-02   8.39621201E-03
  0.212500006      0.162500009      -2.82127447E-02   1.82601772E-02   8.41618888E-03
  0.237500012      0.162500009      -3.32103968E-02   1.84633825E-02   8.48977361E-03
  0.262499988      0.162500009      -3.81810665E-02   1.82827674E-02   8.61673430E-03
  0.287499994      0.162500009      -4.30348665E-02   1.77456662E-02   8.79728049E-03
  0.312500000      0.162500009      -4.76871729E-02   1.68751832E-02   9.03182477E-03
  0.337500006      0.162500009      -5.20578437E-02   1.56902522E-02   9.32080857E-03
  0.362499982      0.162500009      -5.60705736E-02   1.42067298E-02   9.66441259E-03
  0.387499988      0.162500009      -5.96525930E-02   1.24391373E-02   1.00622019E-02
  0.412499994      0.162500009      -6.27347529E-02   1.04027707E-02   1.05128605E-02
  0.437500000      0.162500009      -6.52520359E-02   8.11592489E-03   1.10138161E-02
  0.462500006      0.162500009      -6.71444833E-02   5.60207386E-03   1.15609635E-02
  0.487499982      0.162500009      -6.83585629E-02   2.89183855E-03   1.21483272E-02
  0.512499988      0.162500009      -6.88488930E-02   2.46716700E-05   1.27679221E-02
  0.537500024      0.162500009      -6.85802624E-02  -2.94984365E-03   1.34072499E-02
  0.562500000      0.162500009      -6.75301328E-02  -5.96955186E-03   1.40491249E-02
  0.587499976      0.162500009      -6.56914264E-02  -8.96033458E-03   1.46786254E-02
  0.612500012      0.162500009      -6.30753189E-02  -1.18367840E-02   1.52794495E-02
  0.637499988      0.162500009      -5.97140603E-02  -1.45041766E-02   1.58346500E-02
  0.662500024      0.162500009      -5.56634218E-02  -1.68617386E-02   1.63274501E-02
  0.687500000      0.162500009      -5.10044172E-02  -1.88072752E-02   1.67423896E-02
  0.712499976      0.162500009      -4.58439365E-02  -2.02431325E-02   1.70664806E-02
  0.737500012      0.162500009      -4.03138995E-02  -2.10833214E-02   1.72903519E-02
  0.762499988      0.162500009      -3.45685408E-02  -2.12614797E-02   1.74092166E-02
  0.787500024      0.162500009      -2.87794992E-02  -2.07391083E-02   1.74235366E-02
  0.812500000      0.162500009      -2.31286120E-02  -1.95134282E-02   1.73392221E-02
  0.837499976      0.162500009      -1.77985560E-02  -1.76240727E-02   1.71672441E-02
  0.862500012      0.162500009      -1.29619110E-02  -1.51579343E-02   1.69227608E-02
  0.887499988      0.162500009      -8.76965001E-03  -1.22517301E-02   1.66237243E-02
  0.912500024      0.162500009      -5.34052355E-03  -9.09235235E-03   1.62891671E-02
  0.937500000      0.162500009      -2.75312224E-03  -5.91551885E-03   1.59373861E-02
  0.962499976      0.162500009      -1.04264216E-03  -3.00346571E-03   1.55841457E-02
  0.987500012      0.162500009      -2.04154057E-04  -6.82223879E-04   1.52411712E-02
   1.25000002E-02  0.187500000      -3.60703561E-04   2.12389836E-03   1.00008771E-02
   3.75000015E-02  0.187500000      -1.68220059E-03   6.41389145E-03   9.52392630E-03
   6.25000000E-02  0.187500000      -4.09967126E-03   1.04619525E-02   9.13661160E-03
   8.75000060E-02  0.187500000      -7.41676008E-03   1.40783833E-02   8.83053895E-03
  0.112500004      0.187500000      -1.14584807E-02   1.71517245E-02   8.59834254E-03
  0.137500003      0.187500000      -1.60669032E-02   1.96304210E-02   8.43362324E-03
  0.162500009      0.187500000      -2.10985430E-02   2.15051770E-02   8.33105296E-03
  0.187500000      0.187500000      -2.64225341E-02   2.27936096E-02   8.28645192E-03
  0.212500006      0.187500000      -3.19191739E-02   2.35279351E-02   8.29681009E-03
  0.237500012      0.187500000      -3.74785438E-02   2.37459429E-02   8.36024806E-03
  0.262499988      0.187500000      -4.29991037E-02   2.34849099E-02   8.47590528E-03
  0.287499994      0.187500000      -4.83863130E-02   2.27781795E-02   8.64376687E-03
  0.312500000      0.187500000      -5.35513014E-02   2.16537900E-02   8.86440091E-03
  0.337500006      0.187500000      -5.84097169E-02   2.01347321E-02   9.13868751E-03
  0.362499982      0.187500000      -6.28809258E-02   1.82403568E-02   9.46746953E-03
  0.387499988      0.187500000      -6.68875277E-02   1.59884766E-02   9.85116046E-03
  0.412499994      0.187500000      -7.03554004E-02   1.33979451E-02   1.02893924E-02
  0.437500000      0.187500000      -7.32140839E-02   1.04913320E-02   1.07806139E-02
  0.462500006      0.187500000      -7.53977895E-02   7.29754660E-03   1.13216918E-02
  0.487499982      0.187500000      -7.68467337E-02   3.85420397E-03   1.19075850E-02
  0.512499988      0.187500000      -7.75088742E-02   2.09656500E-04   1.25310868E-02
  0.537500024      0.187500000      -7.73420334E-02  -3.57538043E-03   1.31809246E-02
  0.562500000      0.187500000      -7.63165206E-02  -7.42470706E-03   1.38381030E-02
  0.587499976      0.187500000      -7.44180828E-02  -1.12473452E-02   1.44873448E-02
  0.612500012      0.187500000      -7.16511905E-02  -1.49377873E-02   1.51115116E-02
  0.637499988      0.187500000      -6.80424869E-02  -1.83781162E-02   1.56923849E-02
  0.662500024      0.187500000      -6.36440963E-02  -2.14417633E-02   1.62115004E-02
  0.687500000      0.187500000      -5.85362166E-02  -2.39989981E-02   1.66513734E-02
  0.712499976      0.187500000      -5.28287366E-02  -2.59241425E-02   1.69967897E-02
  0.737500012      0.187500000      -4.66612279E-02  -2.71044858E-02   1.72361191E-02
  0.762499988      0.187500000      -4.02009562E-02  -2.74504069E-02   1.73625089E-02
  0.787500024      0.187500000      -3.36382687E-02  -2.69061550E-02   1.73746832E-02
  0.812500000      0.187500000      -2.71792524E-02  -2.54602935E-02   1.72773506E-02
  0.837499976      0.187500000      -2.10355744E-02  -2.31546909E-02   1.70809254E-02
  0.862500012      0.187500000      -1.54121798E-02  -2.00908370E-02   1.68006402E-02
  0.887499988      0.187500000      -1.04939342E-02  -1.64325405E-02   1.64551381E-02
  0.912500024      0.187500000      -6.43295143E-03  -1.24046076E-02   1.60646401E-02
  0.937500000      0.187500000      -3.33865592E-03  -8.28769151E-03   1.56490393E-02
  0.962499976      0.187500000      -1.27277628E-03  -4.41020587E-03   1.52260140E-02
  0.987500012      0.187500000      -2.50805519E-04  -1.13802589E-03   1.48095209E-02
   1.25000002E-02  0.212500006      -4.09745087E-04   2.89115775E-03   1.00050839E-02
   3.75000015E-02  0.212500006      -1.90645107E-03   8.45766813E-03   9.46575869E-03
   6.25000000E-02  0.212500006      -4.63348906E-03   1.35548022E-02   9.03070904E-03
   8.75000060E-02  0.212500006      -8.35745316E-03   1.80188604E-02   8.68908316E-03
  0.112500004      0.212500006      -1.28724128E-02   2.17603743E-02   8.43067281E-03
  0.137500003      0.212500006      -1.79961808E-02   2.47465819E-02   8.24630819E-03
  0.162500009      0.212500006      -2.35671699E-02   2.69844346E-02   8.12824722E-03
  0.187500000      0.212500006      -2.94415057E-02   2.85056420E-02   8.07038136E-03
  0.212500006      0.212500006      -3.54903713E-02   2.93545444E-02   8.06824770E-03
  0.237500012      0.212500006      -4.15974781E-02   2.95791328E-02   8.11902341E-03
  0.262499988      0.212500006      -4.76567447E-02   2.92250607E-02   8.22133571E-03
  0.287499994      0.212500006      -5.35700954E-02   2.83323117E-02   8.37506354E-03
  0.312500000      0.212500006      -5.92456013E-02   2.69340724E-02   8.58099572E-03
  0.337500006      0.212500006      -6.45958930E-02   2.50572897E-02   8.84051714E-03
  0.362499982      0.212500006      -6.95370138E-02   2.27244552E-02   9.15518589E-03
  0.387499988      0.212500006      -7.39877075E-02   1.99562162E-02   9.52637009E-03
  0.412499994      0.212500006      -7.78693333E-02   1.67743992E-02   9.95471887E-03
  0.437500000      0.212500006      -8.11061114E-02   1.32052097E-02   1.04397628E-02
  0.462500006      0.212500006      -8.36260468E-02   9.28233750E-03   1.09794559E-02
  0.487499982      0.212500006      -8.53623301E-02   5.04976884E-03   1.15697728E-02
  0.512499988      0.212500006      -8.62550735E-02   5.64182061E-04   1.22043993E-02
  0.537500024      0.212500006      -8.62534046E-02  -4.10313858E-03   1.28739625E-02
  0.562500000      0.212500006      -8.53182077E-02  -8.86233896E-03   1.35569479E-02
  0.587499976      0.212500006      -8.34252983E-02  -1.36057176E-02   1.42376451E-02
  0.612500012      0.212500006      -8.05691704E-02  -1.82070769E-02   1.48979221E-02
  0.637499988      0.212500006      -7.67674446E-02  -2.25238819E-02   1.55179482E-02
  0.662500024      0.212500006      -7.20650554E-02  -2.64013633E-02   1.60771012E-02