 VARIABLES="X","Y","U","V","P"
 ZONE F=POINT, I=          64 , J=          64
   7.81250000E-03   7.81250000E-03   2.31433551E-05  -2.35764073E-05   1.45415375E-02
   2.34375000E-02   7.81250000E-03   5.72419558E-05  -1.15832872E-05   1.45323547E-02
   3.90625000E-02   7.81250000E-03   4.74216540E-05   2.01487364E-05   1.45114558E-02
   5.46875000E-02   7.81250000E-03  -2.68665353E-05   5.28872333E-05   1.44840311E-02
   7.03125000E-02   7.81250000E-03  -1.60836265E-04   7.98355686E-05   1.44541021E-02
   8.59375000E-02   7.81250000E-03  -3.41717212E-04   9.98050891E-05   1.44240912E-02
  0.101562500       7.81250000E-03  -5.56636602E-04   1.13882073E-04   1.43951755E-02
  0.117187500       7.81250000E-03  -7.95565429E-04   1.23823178E-04   1.43677387E-02
  0.132812500       7.81250000E-03  -1.05193933E-03   1.31339213E-04   1.43417688E-02
  0.148437500       7.81250000E-03  -1.32228027E-03   1.37806419E-04   1.43171316E-02
  0.164062500       7.81250000E-03  -1.60546787E-03   1.44201622E-04   1.42937498E-02
  0.179687500       7.81250000E-03  -1.90196652E-03   1.51135289E-04   1.42716933E-02
  0.195312500       7.81250000E-03  -2.21316982E-03   1.58925308E-04   1.42512415E-02
  0.210937500       7.81250000E-03  -2.54088431E-03   1.67668200E-04   1.42328683E-02
  0.226562500       7.81250000E-03  -2.88695795E-03   1.77306778E-04   1.42172650E-02
  0.242187500       7.81250000E-03  -3.25302361E-03   1.87683516E-04   1.42053226E-02
  0.257812500       7.81250000E-03  -3.64032434E-03   1.98567664E-04   1.41980881E-02
  0.273437500       7.81250000E-03  -4.04959917E-03   2.09681719E-04   1.41967935E-02
  0.289062500       7.81250000E-03  -4.48099617E-03   2.20712755E-04   1.42027885E-02
  0.304687500       7.81250000E-03  -4.93399519E-03   2.31308572E-04   1.42175844E-02
  0.320312500       7.81250000E-03  -5.40733943E-03   2.41083137E-04   1.42427813E-02
  0.335937500       7.81250000E-03  -5.89896413E-03   2.49612232E-04   1.42800827E-02
  0.351562500       7.81250000E-03  -6.40591420E-03   2.56429717E-04   1.43312681E-02
  0.367187500       7.81250000E-03  -6.92426180E-03   2.61027308E-04   1.43981399E-02
  0.382812500       7.81250000E-03  -7.44902110E-03   2.62858113E-04   1.44825140E-02
  0.398437500       7.81250000E-03  -7.97407515E-03   2.61335837E-04   1.45861180E-02
  0.414062500       7.81250000E-03  -8.49211402E-03   2.55851221E-04   1.47105632E-02
  0.429687500       7.81250000E-03  -8.99458863E-03   2.45775591E-04   1.48572745E-02
  0.445312500       7.81250000E-03  -9.47170146E-03   2.30489677E-04   1.50273442E-02
  0.460937500       7.81250000E-03  -9.91244614E-03   2.09398364E-04   1.52214831E-02
  0.476562500       7.81250000E-03  -1.03046875E-02   1.81969532E-04   1.54398493E-02
  0.492187500       7.81250000E-03  -1.06353257E-02   1.47773826E-04   1.56819541E-02
  0.507812500       7.81250000E-03  -1.08905770E-02   1.06556370E-04   1.59464739E-02
  0.523437500       7.81250000E-03  -1.10564465E-02   5.83547626E-05   1.62311196E-02
  0.539062500       7.81250000E-03  -1.11195659E-02   3.76421212E-06   1.65324342E-02
  0.554687500       7.81250000E-03  -1.10694934E-02  -5.48877506E-05   1.68446004E-02
  0.570312500       7.81250000E-03  -1.08976439E-02  -1.18070282E-04   1.71616785E-02
  0.585937500       7.81250000E-03  -1.05962986E-02  -1.84443328E-04   1.74778141E-02
  0.601562500       7.81250000E-03  -1.01610245E-02  -2.52057187E-04   1.77864060E-02
  0.617187500       7.81250000E-03  -9.59164649E-03  -3.18607112E-04   1.80803407E-02
  0.632812500       7.81250000E-03  -8.89287796E-03  -3.81500402E-04   1.83523111E-02
  0.648437500       7.81250000E-03  -8.07482470E-03  -4.37945127E-04   1.85952131E-02
  0.664062500       7.81250000E-03  -7.15324795E-03  -4.85073833E-04   1.88025348E-02
  0.679687500       7.81250000E-03  -6.14952017E-03  -5.20133588E-04   1.89688094E-02
  0.695312500       7.81250000E-03  -5.09018032E-03  -5.40710811E-04   1.90900266E-02
  0.710937500       7.81250000E-03  -4.00600070E-03  -5.44985989E-04   1.91640072E-02
  0.726562500       7.81250000E-03  -2.93057133E-03  -5.31965634E-04   1.91906486E-02
  0.742187500       7.81250000E-03  -1.89844542E-03  -5.01677627E-04   1.91720780E-02
  0.757812500       7.81250000E-03  -9.43019520E-04  -4.55246132E-04   1.91125069E-02
  0.773437500       7.81250000E-03  -9.45092033E-05  -3.94735689E-04   1.90180112E-02
  0.789062500       7.81250000E-03   6.21525105E-04  -3.22742126E-04   1.88965760E-02
  0.804687500       7.81250000E-03   1.18845794E-03  -2.45595293E-04   1.87567975E-02
  0.820312500       7.81250000E-03   1.60028483E-03  -1.67594961E-04   1.86067671E-02
  0.835937500       7.81250000E-03   1.85915234E-03  -9.25987770E-05   1.84544139E-02
  0.851562500       7.81250000E-03   1.97437359E-03  -2.39072124E-05   1.83067601E-02
  0.867187500       7.81250000E-03   1.96090247E-03   3.61281600E-05   1.81696694E-02
  0.882812500       7.81250000E-03   1.83711271E-03   8.64434696E-05   1.80478618E-02
  0.898437500       7.81250000E-03   1.62319886E-03   1.26279920E-04   1.79447085E-02
  0.914062500       7.81250000E-03   1.34112837E-03   1.54617723E-04   1.78626478E-02
  0.929687500       7.81250000E-03   1.01580168E-03   1.69550898E-04   1.78032629E-02
  0.945312500       7.81250000E-03   6.77460921E-04   1.67641774E-04   1.77671798E-02
  0.960937500       7.81250000E-03   3.65090935E-04   1.43584606E-04   1.77535564E-02
  0.976562500       7.81250000E-03   1.28465792E-04   9.19004378E-05   1.77586544E-02
  0.992187500       7.81250000E-03   1.79979270E-05   1.76253834E-05   1.77730788E-02
   7.81250000E-03   2.34375000E-02   1.07683045E-05  -5.85506641E-05   1.45507762E-02
   2.34375000E-02   2.34375000E-02  -1.50118358E-05   1.25571596E-05   1.45412954E-02
   3.90625000E-02   2.34375000E-02  -1.60266121E-04   1.48181163E-04   1.45233097E-02
   5.46875000E-02   2.34375000E-02  -4.50852996E-04   2.86835508E-04   1.45002324E-02
   7.03125000E-02   2.34375000E-02  -8.77705170E-04   4.03824350E-04   1.44747552E-02
   8.59375000E-02   2.34375000E-02  -1.41751324E-03   4.93636180E-04   1.44486623E-02
  0.101562500       2.34375000E-02  -2.04495550E-03   5.59562759E-04   1.44229420E-02
  0.117187500       2.34375000E-02  -2.73873517E-03   6.08021975E-04   1.43980496E-02
  0.132812500       2.34375000E-02  -3.48368334E-03   6.45662891E-04   1.43741164E-02
  0.148437500       2.34375000E-02  -4.27068910E-03   6.78065349E-04   1.43511994E-02
  0.164062500       2.34375000E-02  -5.09560760E-03   7.09321001E-04   1.43293692E-02
  0.179687500       2.34375000E-02  -5.95784327E-03   7.42065138E-04   1.43088074E-02
  0.195312500       2.34375000E-02  -6.85899332E-03   7.77708483E-04   1.42898466E-02
  0.210937500       2.34375000E-02  -7.80170318E-03   8.16715765E-04   1.42730046E-02
  0.226562500       2.34375000E-02  -8.78877379E-03   8.58863641E-04   1.42589742E-02
  0.242187500       2.34375000E-02  -9.82251950E-03   9.03452048E-04   1.42485984E-02
  0.257812500       2.34375000E-02  -1.09042879E-02   9.49441106E-04   1.42429061E-02
  0.273437500       2.34375000E-02  -1.20341312E-02   9.95556824E-04   1.42430635E-02
  0.289062500       2.34375000E-02  -1.32105574E-02   1.04034517E-03   1.42503493E-02
  0.304687500       2.34375000E-02  -1.44303292E-02   1.08219031E-03   1.42662097E-02
  0.320312500       2.34375000E-02  -1.56883076E-02   1.11932517E-03   1.42921591E-02
  0.335937500       2.34375000E-02  -1.69772822E-02   1.14982459E-03   1.43298162E-02
  0.351562500       2.34375000E-02  -1.82878375E-02   1.17162615E-03   1.43808899E-02
  0.367187500       2.34375000E-02  -1.96082257E-02   1.18251331E-03   1.44470800E-02
  0.382812500       2.34375000E-02  -2.09242534E-02   1.18014589E-03   1.45301232E-02
  0.398437500       2.34375000E-02  -2.22192258E-02   1.16209476E-03   1.46316681E-02
  0.414062500       2.34375000E-02  -2.34739333E-02   1.12588040E-03   1.47532402E-02
  0.429687500       2.34375000E-02  -2.46667080E-02   1.06904458E-03   1.48961982E-02
  0.445312500       2.34375000E-02  -2.57735774E-02   9.89250955E-04   1.50616011E-02
  0.460937500       2.34375000E-02  -2.67685279E-02   8.84364475E-04   1.52501147E-02
  0.476562500       2.34375000E-02  -2.76239328E-02   7.52644264E-04   1.54619031E-02
  0.492187500       2.34375000E-02  -2.83111483E-02   5.92897472E-04   1.56965051E-02
  0.507812500       2.34375000E-02  -2.88013909E-02   4.04811115E-04   1.59527063E-02
  0.523437500       2.34375000E-02  -2.90670972E-02   1.89474915E-04   1.62284076E-02
  0.539062500       2.34375000E-02  -2.90838052E-02  -4.98295412E-05   1.65206045E-02
  0.554687500       2.34375000E-02  -2.88293622E-02  -3.08227958E-04   1.68223195E-02
  0.570312500       2.34375000E-02  -2.82849111E-02  -5.83583314E-04   1.71287283E-02
  0.585937500       2.34375000E-02  -2.74382308E-02  -8.69641080E-04   1.74341034E-02
  0.601562500       2.34375000E-02  -2.62848213E-02  -1.15836761E-03   1.77320857E-02
  0.617187500       2.34375000E-02  -2.48290040E-02  -1.44045800E-03   1.80158820E-02
  0.632812500       2.34375000E-02  -2.30849423E-02  -1.70557341E-03   1.82784908E-02
  0.648437500       2.34375000E-02  -2.10774168E-02  -1.94266951E-03   1.85131636E-02
  0.664062500       2.34375000E-02  -1.88421886E-02  -2.14048522E-03   1.87137164E-02
  0.679687500       2.34375000E-02  -1.64258443E-02  -2.28821300E-03   1.88750047E-02
  0.695312500       2.34375000E-02  -1.38849970E-02  -2.37630028E-03   1.89932771E-02
  0.710937500       2.34375000E-02  -1.12847108E-02  -2.39737821E-03   1.90665945E-02
  0.726562500       2.34375000E-02  -8.69608205E-03  -2.34715501E-03   1.90949924E-02
  0.742187500       2.34375000E-02  -6.19301759E-03  -2.22518900E-03   1.90806147E-02
  0.757812500       2.34375000E-02  -3.84831289E-03  -2.03533447E-03   1.90275889E-02
  0.773437500       2.34375000E-02  -1.72933249E-03  -1.78554479E-03   1.89417768E-02
  0.789062500       2.34375000E-02   1.06115156E-04  -1.48674753E-03   1.88304503E-02
  0.804687500       2.34375000E-02   1.61085755E-03  -1.15651055E-03   1.87028255E-02
  0.820312500       2.34375000E-02   2.75860913E-03  -8.19408800E-04   1.85653940E-02
  0.835937500       2.34375000E-02   3.54759814E-03  -4.91694547E-04   1.84255131E-02
  0.851562500       2.34375000E-02   3.99230374E-03  -1.87697995E-04   1.82897542E-02
  0.867187500       2.34375000E-02   4.12126491E-03   8.15485691E-05   1.81635842E-02
  0.882812500       2.34375000E-02   3.97395110E-03   3.09319556E-04   1.80512387E-02
  0.898437500       2.34375000E-02   3.59712285E-03   4.91400715E-04   1.79558266E-02
  0.914062500       2.34375000E-02   3.04334029E-03   6.22649270E-04   1.78794116E-02
  0.929687500       2.34375000E-02   2.37245695E-03   6.95062568E-04   1.78232081E-02
  0.945312500       2.34375000E-02   1.65425334E-03   6.96029223E-04   1.77875180E-02
  0.960937500       2.34375000E-02   9.71087546E-04   6.08097471E-04   1.77715328E-02
  0.976562500       2.34375000E-02   4.17555188E-04   4.14914743E-04   1.77729111E-02
  0.992187500       2.34375000E-02   9.28482914E-05   1.27551830E-04   1.77875422E-02
   7.81250000E-03   3.90625000E-02  -2.55101768E-05  -4.50692387E-05   1.45724053E-02
   2.34375000E-02   3.90625000E-02  -1.70511121E-04   1.66946804E-04   1.45588024E-02
   3.90625000E-02   3.90625000E-02  -5.17068955E-04   4.82307049E-04   1.45402430E-02
   5.46875000E-02   3.90625000E-02  -1.07371830E-03   7.96656939E-04   1.45187071E-02
   7.03125000E-02   3.90625000E-02  -1.82094565E-03   1.06480415E-03   1.44957546E-02
   8.59375000E-02   3.90625000E-02  -2.72726989E-03   1.27552822E-03   1.44724250E-02
  0.101562500       3.90625000E-02  -3.76017438E-03   1.43478042E-03   1.44493096E-02
  0.117187500       3.90625000E-02  -4.89214109E-03   1.55533699E-03   1.44266756E-02
  0.132812500       3.90625000E-02  -6.10298850E-03   1.65096438E-03   1.44046545E-02
  0.148437500       3.90625000E-02  -7.37989135E-03   1.73353404E-03   1.43833114E-02
  0.164062500       3.90625000E-02  -8.71617161E-03   1.81195117E-03   1.43627822E-02
  0.179687500       3.90625000E-02  -1.01096090E-02   1.89205643E-03   1.43433064E-02
  0.195312500       3.90625000E-02  -1.15607679E-02   1.97702553E-03   1.43252686E-02
  0.210937500       3.90625000E-02  -1.30715184E-02   2.06791051E-03   1.43092014E-02
  0.226562500       3.90625000E-02  -1.46438526E-02   2.16418621E-03   1.42957913E-02
  0.242187500       3.90625000E-02  -1.62789896E-02   2.26418767E-03   1.42858755E-02
  0.257812500       3.90625000E-02  -1.79767255E-02   2.36544642E-03   1.42804459E-02
  0.273437500       3.90625000E-02  -1.97349377E-02   2.46491050E-03   1.42806107E-02
  0.289062500       3.90625000E-02  -2.15492509E-02   2.55909795E-03   1.42876217E-02
  0.304687500       3.90625000E-02  -2.34127566E-02   2.64415541E-03   1.43028516E-02
  0.320312500       3.90625000E-02  -2.53158268E-02   2.71591078E-03   1.43277440E-02
  0.335937500       3.90625000E-02  -2.72459351E-02   2.76988233E-03   1.43638980E-02
  0.351562500       3.90625000E-02  -2.91875191E-02   2.80132587E-03   1.44129302E-02
  0.367187500       3.90625000E-02  -3.11218966E-02   2.80525023E-03   1.44765191E-02
  0.382812500       3.90625000E-02  -3.30272429E-02   2.77650240E-03   1.45563623E-02
  0.398437500       3.90625000E-02  -3.48786116E-02   2.70984112E-03   1.46540869E-02
  0.414062500       3.90625000E-02  -3.66480649E-02   2.60007801E-03   1.47712184E-02
  0.429687500       3.90625000E-02  -3.83048952E-02   2.44224863E-03   1.49091640E-02
  0.445312500       3.90625000E-02  -3.98159958E-02   2.23181141E-03   1.50689688E-02
  0.460937500       3.90625000E-02  -4.11463566E-02   1.96489319E-03   1.52514381E-02
  0.476562500       3.90625000E-02  -4.22597304E-02   1.63863529E-03   1.54567994E-02
  0.492187500       3.90625000E-02  -4.31194901E-02   1.25156937E-03   1.56847648E-02
  0.507812500       3.90625000E-02  -4.36897054E-02   8.04211944E-04   1.59343202E-02
  0.523437500       3.90625000E-02  -4.39363793E-02   2.99985695E-04   1.62036456E-02
  0.539062500       3.90625000E-02  -4.38294187E-02  -2.53187376E-04   1.64895318E-02
  0.554687500       3.90625000E-02  -4.33418751E-02  -8.49576434E-04   1.67846400E-02
  0.570312500       3.90625000E-02  -4.24529463E-02  -1.47848274E-03   1.70849264E-02
  0.585937500       3.90625000E-02  -4.11517993E-02  -2.12558359E-03   1.73846930E-02
  0.601562500       3.90625000E-02  -3.94370630E-02  -2.77374219E-03   1.76776275E-02
  0.617187500       3.90625000E-02  -3.73179056E-02  -3.40339821E-03   1.79570131E-02
  0.632812500       3.90625000E-02  -3.48150805E-02  -3.99301294E-03   1.82159338E-02
  0.648437500       3.90625000E-02  -3.19617763E-02  -4.51968890E-03   1.84476897E-02
  0.664062500       3.90625000E-02  -2.88040861E-02  -4.96013835E-03   1.86461266E-02
  0.679687500       3.90625000E-02  -2.54009515E-02  -5.29189175E-03   1.88061316E-02
  0.695312500       3.90625000E-02  -2.18234994E-02  -5.49484650E-03   1.89239495E-02
  0.710937500       3.90625000E-02  -1.81535948E-02  -5.55299781E-03   1.89976618E-02
  0.726562500       3.90625000E-02  -1.44815054E-02  -5.45623805E-03   1.90273039E-02
  0.742187500       3.90625000E-02  -1.09025910E-02  -5.20204939E-03   1.90150589E-02
  0.757812500       3.90625000E-02  -7.51298293E-03  -4.79670847E-03   1.89650636E-02
  0.773437500       3.90625000E-02  -4.40439302E-03  -4.25559422E-03   1.88832246E-02
  0.789062500       3.90625000E-02  -1.65834941E-03  -3.60195339E-03   1.87766682E-02
  0.804687500       3.90625000E-02   6.57268683E-04  -2.86532636E-03   1.86542049E-02
  0.820312500       3.90625000E-02   2.49101594E-03  -2.09564436E-03   1.85236670E-02
  0.835937500       3.90625000E-02   3.82238976E-03  -1.33926678E-03   1.83908418E-02
  0.851562500       3.90625000E-02   4.66349628E-03  -6.29280054E-04   1.82621870E-02
  0.867187500       3.90625000E-02   5.04706148E-03   7.35006324E-06   1.81430094E-02
  0.882812500       3.90625000E-02   5.02361450E-03   5.51104429E-04   1.80371478E-02
  0.898437500       3.90625000E-02   4.65709716E-03   9.89856664E-04   1.79473087E-02
  0.914062500       3.90625000E-02   4.02094377E-03   1.31107739E-03   1.78752132E-02
  0.929687500       3.90625000E-02   3.19802412E-03   1.49742106E-03   1.78218111E-02
  0.945312500       3.90625000E-02   2.28270190E-03   1.52420392E-03   1.77873634E-02
  0.960937500       3.90625000E-02   1.38308853E-03   1.35972071E-03   1.77715532E-02
  0.976562500       3.90625000E-02   6.23049040E-04   9.73885297E-04   1.77736264E-02
  0.992187500       3.90625000E-02   1.47224229E-04   3.66530556E-04   1.77929327E-02
   7.81250000E-03   5.46875000E-02  -6.98592703E-05   4.90368257E-05   1.46012036E-02
   2.34375000E-02   5.46875000E-02  -3.58606630E-04   5.03673218E-04   1.45812482E-02
   3.90625000E-02   5.46875000E-02  -9.39725025E-04   1.06995378E-03   1.45599591E-02
   5.46875000E-02   5.46875000E-02  -1.79149024E-03   1.61412894E-03   1.45381009E-02
   7.03125000E-02   5.46875000E-02  -2.87715998E-03   2.07694573E-03   1.45162400E-02
   8.59375000E-02   5.46875000E-02  -4.15530149E-03   2.44458579E-03   1.44946724E-02
  0.101562500       5.46875000E-02  -5.58733847E-03   2.72741960E-03   1.44734895E-02
  0.117187500       5.46875000E-02  -7.14174611E-03   2.94585247E-03   1.44526800E-02
  0.132812500       5.46875000E-02  -8.79547000E-03   3.12183378E-03   1.44321946E-02
  0.148437500       5.46875000E-02  -1.05334753E-02   3.27442680E-03   1.44120688E-02
  0.164062500       5.46875000E-02  -1.23472717E-02   3.41802789E-03   1.43924123E-02
  0.179687500       5.46875000E-02  -1.42330416E-02   3.56212747E-03   1.43734701E-02
  0.195312500       5.46875000E-02  -1.61898080E-02   3.71186784E-03   1.43556427E-02
  0.210937500       5.46875000E-02  -1.82178151E-02   3.86886904E-03   1.43394815E-02
  0.226562500       5.46875000E-02  -2.03172378E-02   4.03208751E-03   1.43256374E-02
  0.242187500       5.46875000E-02  -2.24871784E-02   4.19852883E-03   1.43149672E-02
  0.257812500       5.46875000E-02  -2.47249268E-02   4.36381623E-03   1.43083958E-02
  0.273437500       5.46875000E-02  -2.70254500E-02   4.52256575E-03   1.43070295E-02
  0.289062500       5.46875000E-02  -2.93809883E-02   4.66865161E-03   1.43120540E-02
  0.304687500       5.46875000E-02  -3.17808092E-02   4.79535758E-03   1.43248104E-02
  0.320312500       5.46875000E-02  -3.42109948E-02   4.89546079E-03   1.43467067E-02
  0.335937500       5.46875000E-02  -3.66543308E-02   4.96132392E-03   1.43792992E-02
  0.351562500       5.46875000E-02  -3.90901975E-02   4.98494832E-03   1.44242095E-02
  0.367187500       5.46875000E-02  -4.14945930E-02   4.95807361E-03   1.44830933E-02
  0.382812500       5.46875000E-02  -4.38401774E-02   4.87232674E-03   1.45576512E-02
  0.398437500       5.46875000E-02  -4.60964106E-02   4.71938075E-03   1.46496007E-02
  0.414062500       5.46875000E-02  -4.82298285E-02   4.49119788E-03   1.47604952E-02
  0.429687500       5.46875000E-02  -5.02044037E-02   4.18034196E-03   1.48918545E-02
  0.445312500       5.46875000E-02  -5.19820452E-02   3.78027279E-03   1.50448401E-02
  0.460937500       5.46875000E-02  -5.35232648E-02   3.28580709E-03   1.52204381E-02
  0.476562500       5.46875000E-02  -5.47879338E-02   2.69353297E-03   1.54190427E-02
  0.492187500       5.46875000E-02  -5.57362065E-02   2.00242316E-03   1.56406593E-02
  0.507812500       5.46875000E-02  -5.63294962E-02   1.21451518E-03   1.58845168E-02
  0.523437500       5.46875000E-02  -5.65314367E-02   3.35862860E-04   1.61492489E-02
  0.539062500       5.46875000E-02  -5.63080013E-02  -6.22012012E-04   1.64303631E-02
  0.554687500       5.46875000E-02  -5.56318536E-02  -1.64710486E-03   1.67222135E-02
  0.570312500       5.46875000E-02  -5.44851832E-02  -2.71936599E-03   1.70200970E-02
  0.585937500       5.46875000E-02  -5.28586023E-02  -3.81538901E-03   1.73183866E-02
  0.601562500       5.46875000E-02  -5.07523865E-02  -4.90799919E-03   1.76107846E-02
  0.617187500       5.46875000E-02  -4.81774807E-02  -5.96648734E-03   1.78904627E-02
  0.632812500       5.46875000E-02  -4.51565310E-02  -6.95713516E-03   1.81504898E-02
  0.648437500       5.46875000E-02  -4.17248420E-02  -7.84412771E-03   1.83839388E-02
  0.664062500       5.46875000E-02  -3.79310921E-02  -8.59083515E-03   1.85845364E-02
  0.679687500       5.46875000E-02  -3.38376313E-02  -9.16158129E-03   1.87469106E-02
  0.695312500       5.46875000E-02  -2.95203123E-02  -9.52379499E-03   1.88671593E-02
  0.710937500       5.46875000E-02  -2.50676107E-02  -9.65057500E-03   1.89431552E-02
  0.726562500       5.46875000E-02  -2.05788612E-02  -9.52343643E-03   1.89747885E-02
  0.742187500       5.46875000E-02  -1.61614381E-02  -9.13510844E-03   1.89641975E-02
  0.757812500       5.46875000E-02  -1.19267404E-02  -8.49183276E-03   1.89155936E-02
  0.773437500       5.46875000E-02  -7.98488595E-03  -7.61472620E-03   1.88350100E-02
  0.789062500       5.46875000E-02  -4.43812506E-03  -6.53935503E-03   1.87298562E-02
  0.804687500       5.46875000E-02  -1.37274992E-03  -5.31254709E-03   1.86083131E-02
  0.820312500       5.46875000E-02   1.14006188E-03  -3.99850309E-03   1.84794683E-02
  0.835937500       5.46875000E-02   3.05188401E-03  -2.68302299E-03   1.83495656E-02
  0.851562500       5.46875000E-02   4.35670186E-03  -1.43476960E-03   1.82241108E-02
  0.867187500       5.46875000E-02   5.08599170E-03  -3.03245703E-04   1.81084350E-02
  0.882812500       5.46875000E-02   5.29512111E-03   6.72866707E-04   1.80063732E-02
  0.898437500       5.46875000E-02   5.05947229E-03   1.46717171E-03   1.79201160E-02
  0.914062500       5.46875000E-02   4.46819467E-03   2.05815211E-03   1.78510752E-02
  0.929687500       5.46875000E-02   3.62071674E-03   2.41773506E-03   1.77999679E-02
  0.945312500       5.46875000E-02   2.62880069E-03   2.50814040E-03   1.77670605E-02
  0.960937500       5.46875000E-02   1.61968102E-03   2.28154054E-03   1.77524481E-02
  0.976562500       5.46875000E-02   7.41777127E-04   1.68703718E-03   1.77563857E-02
  0.992187500       5.46875000E-02   1.77870446E-04   6.90535526E-04   1.77798383E-02
   7.81250000E-03   7.03125000E-02  -1.15910443E-04   2.33539176E-04   1.46321151E-02
   2.34375000E-02   7.03125000E-02  -5.55818668E-04   1.04490039E-03   1.46048134E-02
   3.90625000E-02   7.03125000E-02  -1.38391543E-03   1.93462754E-03   1.45796277E-02
   5.46875000E-02   7.03125000E-02  -2.54231389E-03   2.75631296E-03   1.45563073E-02
   7.03125000E-02   7.03125000E-02  -3.97241395E-03   3.44723649E-03   1.45345265E-02
   8.59375000E-02   7.03125000E-02  -5.62047772E-03   3.99722299E-03   1.45138837E-02
  0.101562500       7.03125000E-02  -7.44139962E-03   4.42448538E-03   1.44939609E-02
  0.117187500       7.03125000E-02  -9.40026715E-03   4.75883204E-03   1.44743901E-02
  0.132812500       7.03125000E-02  -1.14721414E-02   5.03125275E-03   1.44549292E-02
  0.148437500       7.03125000E-02  -1.36406608E-02   5.26837166E-03   1.44354645E-02
  0.164062500       7.03125000E-02  -1.58960819E-02   5.49018290E-03   1.44160679E-02
  0.179687500       7.03125000E-02  -1.82331875E-02   5.70977619E-03   1.43969432E-02
  0.195312500       7.03125000E-02  -2.06493344E-02   5.93410898E-03   1.43784769E-02
  0.210937500       7.03125000E-02  -2.31428221E-02   6.16515661E-03   1.43612064E-02
  0.226562500       7.03125000E-02  -2.57115941E-02   6.40108623E-03   1.43457651E-02
  0.242187500       7.03125000E-02  -2.83522494E-02   6.63728081E-03   1.43329762E-02
  0.257812500       7.03125000E-02  -3.10593434E-02   6.86712656E-03   1.43237580E-02
  0.273437500       7.03125000E-02  -3.38248760E-02   7.08259083E-03   1.43191665E-02
  0.289062500       7.03125000E-02  -3.66379544E-02   7.27459323E-03   1.43203801E-02
  0.304687500       7.03125000E-02  -3.94845530E-02   7.43325986E-03   1.43286642E-02
  0.320312500       7.03125000E-02  -4.23473865E-02   7.54806772E-03   1.43454643E-02
  0.335937500       7.03125000E-02  -4.52057943E-02   7.60801276E-03   1.43722985E-02
  0.351562500       7.03125000E-02  -4.80357558E-02   7.60169886E-03   1.44107938E-02
  0.367187500       7.03125000E-02  -5.08098863E-02   7.51753058E-03   1.44626871E-02
  0.382812500       7.03125000E-02  -5.34976274E-02   7.34393019E-03   1.45297181E-02
  0.398437500       7.03125000E-02  -5.60654476E-02   7.06960866E-03   1.46136759E-02
  0.414062500       7.03125000E-02  -5.84771559E-02   6.68390794E-03   1.47162769E-02
  0.429687500       7.03125000E-02  -6.06943518E-02   6.17724191E-03   1.48391649E-02
  0.445312500       7.03125000E-02  -6.26770109E-02   5.54152112E-03   1.49837686E-02
  0.460937500       7.03125000E-02  -6.43841326E-02   4.77073994E-03   1.51512176E-02
  0.476562500       7.03125000E-02  -6.57745153E-02   3.86148086E-03   1.53422235E-02
  0.492187500       7.03125000E-02  -6.68075681E-02   2.81359907E-03   1.55570609E-02
  0.507812500       7.03125000E-02  -6.74441457E-02   1.63092720E-03   1.57953165E-02
  0.523437500       7.03125000E-02  -6.76471740E-02   3.22050269E-04   1.60559211E-02
  0.539062500       7.03125000E-02  -6.73823133E-02  -1.09895424E-03   1.63343791E-02
  0.554687500       7.03125000E-02  -6.66222349E-02  -2.60896469E-03   1.66251790E-02
  0.570312500       7.03125000E-02  -6.53488636E-02  -4.18026885E-03   1.69234350E-02
  0.585937500       7.03125000E-02  -6.35520220E-02  -5.78076812E-03   1.72234736E-02
  0.601562500       7.03125000E-02  -6.12302795E-02  -7.37359375E-03   1.75189301E-02
  0.617187500       7.03125000E-02  -5.83920553E-02  -8.91720504E-03   1.78028960E-02
  0.632812500       7.03125000E-02  -5.50568700E-02  -1.03658848E-02   1.80681366E-02
  0.648437500       7.03125000E-02  -5.12566194E-02  -1.16707888E-02   1.83075499E-02
  0.664062500       7.03125000E-02  -4.70366925E-02  -1.27814636E-02   1.85144376E-02
  0.679687500       7.03125000E-02  -4.24568169E-02  -1.36479996E-02   1.86831281E-02
  0.695312500       7.03125000E-02  -3.75915542E-02  -1.42237470E-02   1.88092478E-02
  0.710937500       7.03125000E-02  -3.25301513E-02  -1.44685768E-02   1.88903287E-02
  0.726562500       7.03125000E-02  -2.73755752E-02  -1.43526290E-02   1.89259853E-02
  0.742187500       7.03125000E-02  -2.22425051E-02  -1.38602676E-02   1.89181305E-02
  0.757812500       7.03125000E-02  -1.72539204E-02  -1.29937762E-02   1.88709740E-02
  0.773437500       7.03125000E-02  -1.25360778E-02  -1.17762405E-02   1.87906697E-02
  0.789062500       7.03125000E-02  -8.21164716E-03  -1.02527076E-02   1.86849590E-02
  0.804687500       7.03125000E-02  -4.39105695E-03  -8.48874357E-03   1.85624100E-02
  0.820312500       7.03125000E-02  -1.16283819E-03  -6.56682532E-03   1.84316970E-02
  0.835937500       7.03125000E-02   1.40179927E-03  -4.59454441E-03   1.83010884E-02
  0.851562500       7.03125000E-02   3.26325605E-03  -2.69281282E-03   1.81757268E-02
  0.867187500       7.03125000E-02   4.43677139E-03  -9.51205555E-04   1.80606022E-02
  0.882812500       7.03125000E-02   4.97897808E-03   5.66370552E-04   1.79597046E-02
  0.898437500       7.03125000E-02   4.97378409E-03   1.81144557E-03   1.78751647E-02
  0.914062500       7.03125000E-02   4.52414667E-03   2.75177136E-03   1.78078208E-02
  0.929687500       7.03125000E-02   3.74471163E-03   3.34803970E-03   1.77582186E-02
  0.945312500       7.03125000E-02   2.76288460E-03   3.54860956E-03   1.77265387E-02
  0.960937500       7.03125000E-02   1.72320101E-03   3.28691630E-03   1.77130606E-02
  0.976562500       7.03125000E-02   7.95683125E-04   2.48413160E-03   1.77184902E-02
  0.992187500       7.03125000E-02   1.91574931E-04   1.05889584E-03   1.77443922E-02
   7.81250000E-03   8.59375000E-02  -1.61190881E-04   5.09366335E-04   1.46605726E-02
   2.34375000E-02   8.59375000E-02  -7.51268817E-04   1.79611845E-03   1.46256713E-02
   3.90625000E-02   8.59375000E-02  -1.82595686E-03   3.08286399E-03   1.45960860E-02
   5.46875000E-02   8.59375000E-02  -3.28949420E-03   4.22669062E-03   1.45706702E-02
   7.03125000E-02   8.59375000E-02  -5.05916914E-03   5.17332414E-03   1.45482924E-02
   8.59375000E-02   8.59375000E-02  -7.06731761E-03   5.92405535E-03   1.45278927E-02
  0.101562500       8.59375000E-02  -9.26155318E-03   6.50953967E-03   1.45085612E-02
  0.117187500       8.59375000E-02  -1.16035072E-02   6.97135506E-03   1.44895855E-02
  0.132812500       8.59375000E-02  -1.40666515E-02   7.35053374E-03   1.44704822E-02
  0.148437500       8.59375000E-02  -1.66337043E-02   7.68148666E-03   1.44509943E-02
  0.164062500       8.59375000E-02  -1.92940123E-02   7.98966642E-03   1.44310836E-02
  0.179687500       8.59375000E-02  -2.20411662E-02   8.29146430E-03   1.44109167E-02
  0.195312500       8.59375000E-02  -2.48709768E-02   8.59533995E-03   1.43908216E-02
  0.210937500       8.59375000E-02  -2.77798548E-02   8.90331157E-03   1.43712964E-02
  0.226562500       8.59375000E-02  -3.07635926E-02   9.21251904E-03   1.43529717E-02
  0.242187500       8.59375000E-02  -3.38164754E-02   9.51653067E-03   1.43366139E-02
  0.257812500       8.59375000E-02  -3.69306654E-02   9.80637316E-03   1.43231247E-02
  0.273437500       8.59375000E-02  -4.00957949E-02   1.00712804E-02   1.43135246E-02
  0.289062500       8.59375000E-02  -4.32986617E-02   1.02991974E-02   1.43089509E-02
  0.304687500       8.59375000E-02  -4.65230793E-02   1.04770921E-02   1.43106850E-02
  0.320312500       8.59375000E-02  -4.97497320E-02   1.05912182E-02   1.43201556E-02
  0.335937500       8.59375000E-02  -5.29561788E-02   1.06272865E-02   1.43389087E-02
  0.351562500       8.59375000E-02  -5.61167970E-02   1.05706304E-02   1.43685788E-02
  0.367187500       8.59375000E-02  -5.92028685E-02   1.04065072E-02   1.44110145E-02
  0.382812500       8.59375000E-02  -6.21827394E-02   1.01203416E-02   1.44680440E-02
  0.398437500       8.59375000E-02  -6.50220215E-02   9.69813019E-03   1.45415915E-02
  0.414062500       8.59375000E-02  -6.76839650E-02   9.12689604E-03   1.46335708E-02