 VARIABLES="X","Y","U","V","P"
 ZONE F=POINT, I=          32 , J=          32
   1.56250000E-02   1.56250000E-02   211791.266      -211797.500       21416532.0    
   4.68750000E-02   1.56250000E-02   630386.750      -206922.078       21390034.0    
   7.81250000E-02   1.56250000E-02   1034471.69      -197362.344       21337672.0    
  0.109375000       1.56250000E-02   1415228.00      -183595.688       21260640.0    
  0.140625000       1.56250000E-02   1764712.88      -166148.641       21160668.0    
  0.171875000       1.56250000E-02   2076335.12      -145756.016       21039944.0    
  0.203125000       1.56250000E-02   2344952.25      -123200.867       20901022.0    
  0.234375000       1.56250000E-02   2567015.75      -99298.5781       20746732.0    
  0.265625000       1.56250000E-02   2740701.00      -74848.9297       20580070.0    
  0.296875000       1.56250000E-02   2865653.50      -50572.0820       20404092.0    
  0.328125000       1.56250000E-02   2942815.25      -27140.4727       20221836.0    
  0.359375000       1.56250000E-02   2974457.00      -5131.15332       20036238.0    
  0.390625000       1.56250000E-02   2963911.25       15037.0166       19850050.0    
  0.421875000       1.56250000E-02   2915187.00       33027.8516       19665790.0    
  0.453125000       1.56250000E-02   2832777.00       48697.6992       19485708.0    
  0.484375000       1.56250000E-02   2721480.50       61886.9336       19311760.0    
  0.515625000       1.56250000E-02   2586276.75       72611.8906       19145596.0    
  0.546875000       1.56250000E-02   2432034.75       80888.8203       18988550.0    
  0.578125000       1.56250000E-02   2263465.50       86909.8750       18841664.0    
  0.609375000       1.56250000E-02   2084927.75       90835.1172       18705684.0    
  0.640625000       1.56250000E-02   1900317.00       92888.4922       18581108.0    
  0.671875000       1.56250000E-02   1713143.25       93357.8750       18468196.0    
  0.703125000       1.56250000E-02   1526371.75       92451.0938       18367008.0    
  0.734375000       1.56250000E-02   1342406.25       90519.9688       18277434.0    
  0.765625000       1.56250000E-02   1163057.00       87820.3359       18199234.0    
  0.796875000       1.56250000E-02   989573.000       84656.0703       18132072.0    
  0.828125000       1.56250000E-02   822546.000       81331.1016       18075552.0    
  0.859375000       1.56250000E-02   661975.312       78101.4453       18029264.0    
  0.890625000       1.56250000E-02   507475.469       75191.1641       17992812.0    
  0.921875000       1.56250000E-02   358260.812       72840.3438       17965834.0    
  0.953125000       1.56250000E-02   213081.641       71161.1328       17948032.0    
  0.984375000       1.56250000E-02   70658.3438       70297.9609       17939200.0    
   1.56250000E-02   4.68750000E-02   216662.781      -640266.250       21442998.0    
   4.68750000E-02   4.68750000E-02   644813.562      -625413.188       21415890.0    
   7.81250000E-02   4.68750000E-02   1057787.38      -596360.875       21362332.0    
  0.109375000       4.68750000E-02   1446427.25      -554429.500       21283578.0    
  0.140625000       4.68750000E-02   1802534.62      -501407.438       21181424.0    
  0.171875000       4.68750000E-02   2119262.00      -439452.062       21058150.0    
  0.203125000       4.68750000E-02   2391386.50      -370993.375       20916408.0    
  0.234375000       4.68750000E-02   2615342.50      -298510.188       20759130.0    
  0.265625000       4.68750000E-02   2789400.75      -224386.469       20589412.0    
  0.296875000       4.68750000E-02   2913334.25      -150926.953       20410400.0    
  0.328125000       4.68750000E-02   2988228.50      -80149.0469       20225216.0    
  0.359375000       4.68750000E-02   3016607.50      -13703.8281       20036868.0    
  0.390625000       4.68750000E-02   3002043.25       47154.3555       19848160.0    
  0.421875000       4.68750000E-02   2948822.00       101401.383       19661652.0    
  0.453125000       4.68750000E-02   2861611.50       148461.891       19479612.0    
  0.484375000       4.68750000E-02   2745371.75       188032.609       19304016.0    
  0.515625000       4.68750000E-02   2605257.50       220066.203       19136512.0    
  0.546875000       4.68750000E-02   2446313.25       244819.219       18978432.0    
  0.578125000       4.68750000E-02   2273394.00       262708.000       18830794.0    
  0.609375000       4.68750000E-02   2090890.62       274276.594       18694324.0    
  0.640625000       4.68750000E-02   1902825.75       280180.969       18569492.0    
  0.671875000       4.68750000E-02   1712693.75       281252.781       18456522.0    
  0.703125000       4.68750000E-02   1523523.50       278291.688       18355448.0    
  0.734375000       4.68750000E-02   1337766.75       272193.312       18266116.0    
  0.765625000       4.68750000E-02   1157185.75       263805.250       18188254.0    
  0.796875000       4.68750000E-02   983077.750       254071.312       18121488.0    
  0.828125000       4.68750000E-02   815986.625       243775.375       18065384.0    
  0.859375000       4.68750000E-02   655831.688       233829.500       18019500.0    
  0.890625000       4.68750000E-02   502211.625       224905.938       17983412.0    
  0.921875000       4.68750000E-02   354228.906       217628.953       17956728.0    
  0.953125000       4.68750000E-02   210537.781       212494.938       17939136.0    
  0.984375000       4.68750000E-02   69794.4609       209841.250       17930412.0    
   1.56250000E-02   7.81250000E-02   226636.547      -1083517.88       21496530.0    
   4.68750000E-02   7.81250000E-02   674279.562      -1058045.50       21468174.0    
   7.81250000E-02   7.81250000E-02   1105444.12      -1008248.38       21412178.0    
  0.109375000       7.81250000E-02   1510166.50      -936385.500       21329902.0    
  0.140625000       7.81250000E-02   1879671.75      -845619.875       21223300.0    
  0.171875000       7.81250000E-02   2206727.75      -739675.875       21094830.0    
  0.203125000       7.81250000E-02   2485870.25      -622823.375       20947350.0    
  0.234375000       7.81250000E-02   2713597.00      -499301.500       20784000.0    
  0.265625000       7.81250000E-02   2888257.00      -373270.969       20608074.0    
  0.296875000       7.81250000E-02   3009863.00      -248685.625       20422916.0    
  0.328125000       7.81250000E-02   3080011.00      -128924.070       20231816.0    
  0.359375000       7.81250000E-02   3101733.50      -16680.1250       20037916.0    
  0.390625000       7.81250000E-02   3078989.25       85798.8672       19844124.0    
  0.421875000       7.81250000E-02   3016468.50       176913.500       19653086.0    
  0.453125000       7.81250000E-02   2919383.50       255608.344       19467124.0    
  0.484375000       7.81250000E-02   2793061.50       321548.250       19288232.0    
  0.515625000       7.81250000E-02   2643041.75       374717.906       19118066.0    
  0.546875000       7.81250000E-02   2474656.75       415550.000       18957928.0    
  0.578125000       7.81250000E-02   2292905.00       444748.875       18808808.0    
  0.609375000       7.81250000E-02   2102384.75       463242.688       18671384.0    
  0.640625000       7.81250000E-02   1907278.88       472247.281       18546072.0    
  0.671875000       7.81250000E-02   1711241.50       473058.281       18433028.0    
  0.703125000       7.81250000E-02   1517301.75       467195.250       18332212.0    
  0.734375000       7.81250000E-02   1327910.75       456001.625       18243402.0    
  0.765625000       7.81250000E-02   1144927.50       441061.062       18166252.0    
  0.796875000       7.81250000E-02   969536.875       423861.250       18100308.0    
  0.828125000       7.81250000E-02   802299.250       405810.062       18045076.0    
  0.859375000       7.81250000E-02   643102.062       388379.750       18000032.0    
  0.890625000       7.81250000E-02   491272.094       372802.656       17964696.0    
  0.921875000       7.81250000E-02   345847.875       360103.250       17938628.0    
  0.953125000       7.81250000E-02   205291.672       351146.250       17921468.0    
  0.984375000       7.81250000E-02   68003.1719       346541.812       17912968.0    
   1.56250000E-02  0.109375000       242125.844      -1552189.38       21578364.0    
   4.68750000E-02  0.109375000       720073.250      -1514900.25       21548070.0    
   7.81250000E-02  0.109375000       1179446.75      -1442136.25       21488284.0    
  0.109375000      0.109375000       1609055.50      -1337271.25       21400544.0    
  0.140625000      0.109375000       1999243.75      -1204937.75       21287042.0    
  0.171875000      0.109375000       2342058.00      -1050875.50       21150524.0    
  0.203125000      0.109375000       2631760.25      -881274.000       20994176.0    
  0.234375000      0.109375000       2864894.50      -702484.875       20821460.0    
  0.265625000      0.109375000       3040016.25      -520750.125       20635992.0    
  0.296875000      0.109375000       3157681.00      -341625.000       20441412.0    
  0.328125000      0.109375000       3220234.00      -170009.812       20241264.0    
  0.359375000      0.109375000       3231330.00      -9819.17188       20038892.0    
  0.390625000      0.109375000       3195637.00       135819.688       19837380.0    
  0.421875000      0.109375000       3118631.50       264732.344       19639488.0    
  0.453125000      0.109375000       3006246.25       375591.625       19447616.0    
  0.484375000      0.109375000       2864481.25       467902.594       19263782.0    
  0.515625000      0.109375000       2699259.00       541826.250       19089636.0    
  0.546875000      0.109375000       2516344.50       597987.375       18926456.0    
  0.578125000      0.109375000       2321087.00       637458.625       18775172.0    
  0.609375000      0.109375000       2118389.00       661728.000       18636394.0    
  0.640625000      0.109375000       1912641.38       672523.250       18510440.0    
  0.671875000      0.109375000       1707641.75       671700.125       18397372.0    
  0.703125000      0.109375000       1506467.00       661353.875       18297034.0    
  0.734375000      0.109375000       1311632.62       643579.750       18209104.0    
  0.765625000      0.109375000       1125045.38       620569.250       18133112.0    
  0.796875000      0.109375000       947826.750       594417.875       18068498.0    
  0.828125000      0.109375000       780505.125       567301.438       18014652.0    
  0.859375000      0.109375000       622824.250       541108.250       17970948.0    
  0.890625000      0.109375000       473935.125       517790.750       17936808.0    
  0.921875000      0.109375000       332572.469       498853.719       17911712.0    
  0.953125000      0.109375000       196974.500       485482.062       17895240.0    
  0.984375000      0.109375000       65188.2227       478622.875       17887092.0    
   1.56250000E-02  0.140625000       263912.781      -2058064.25       21690434.0    
   4.68750000E-02  0.140625000       784319.250      -2007217.75       21657414.0    
   7.81250000E-02  0.140625000       1283072.88      -1908113.75       21592318.0    
  0.109375000      0.140625000       1747365.25      -1765479.50       21496930.0    
  0.140625000      0.140625000       2166067.25      -1585961.00       21373784.0    
  0.171875000      0.140625000       2530391.50      -1377520.75       21226056.0    
  0.203125000      0.140625000       2834260.75      -1148827.88       21057378.0    
  0.234375000      0.140625000       3074120.50      -908683.500       20871684.0    
  0.265625000      0.140625000       3249117.00      -665539.188       20673048.0    
  0.296875000      0.140625000       3360603.25      -426984.625       20465508.0    
  0.328125000      0.140625000       3411815.50      -199506.375       20252966.0    
  0.359375000      0.140625000       3407561.75       11644.4307       20039052.0    
  0.390625000      0.140625000       3353541.00       202559.969       19827064.0    
  0.421875000      0.140625000       3256240.75       370586.594       19619920.0    
  0.453125000      0.140625000       3122554.00       514157.719       19420108.0    
  0.484375000      0.140625000       2959296.50       632730.875       19229684.0    
  0.515625000      0.140625000       2773127.00       726675.500       19050284.0    
  0.546875000      0.140625000       2570289.50       797064.875       18883132.0    
  0.578125000      0.140625000       2356645.75       845419.625       18729084.0    
  0.609375000      0.140625000       2137449.75       873740.000       18588632.0    
  0.640625000      0.140625000       1917251.50       884409.750       18461976.0    
  0.671875000      0.140625000       1700072.50       879940.250       18349040.0    
  0.703125000      0.140625000       1489181.50       862970.625       18249522.0    
  0.734375000      0.140625000       1287126.50       836427.938       18162938.0    
  0.765625000      0.140625000       1095765.75       803143.125       18088668.0    
  0.796875000      0.140625000       916269.250       765995.500       18025996.0    
  0.828125000      0.140625000       748989.750       727800.750       17974156.0    
  0.859375000      0.140625000       593591.438       691118.938       17932388.0    
  0.890625000      0.140625000       449017.625       658526.750       17899968.0    
  0.921875000      0.140625000       313539.188       632073.062       17876268.0    
  0.953125000      0.140625000       185058.438       613487.250       17860780.0    
  0.984375000      0.140625000       61141.6172       603925.250       17853138.0    
   1.56250000E-02  0.171875000       292955.312      -2614635.25       21835444.0    
   4.68750000E-02  0.171875000       870006.000      -2547757.00       21798790.0    
   7.81250000E-02  0.171875000       1421184.62      -2417532.50       21726610.0    
  0.109375000      0.171875000       1931208.50      -2230506.00       21621036.0    
  0.140625000      0.171875000       2387202.50      -1995815.25       21485092.0    
  0.171875000      0.171875000       2779191.00      -1724285.75       21322520.0    
  0.203125000      0.171875000       3100597.25      -1427691.00       21137590.0    
  0.234375000      0.171875000       3348183.00      -1117810.00       20934864.0    
  0.265625000      0.171875000       3521715.00      -805657.500       20719014.0    
  0.296875000      0.171875000       3623713.50      -501194.625       20494628.0    
  0.328125000      0.171875000       3658861.25      -212623.172       20266060.0    
  0.359375000      0.171875000       3633395.00       53462.6992       20037308.0    
  0.390625000      0.171875000       3554579.00       292333.938       19811944.0    
  0.421875000      0.171875000       3430229.25       500968.344       19593060.0    
  0.453125000      0.171875000       3268390.50       677720.250       19383252.0    
  0.484375000      0.171875000       3076999.25       822208.250       19184606.0    
  0.515625000      0.171875000       2863593.25       935154.375       18998726.0    
  0.546875000      0.171875000       2635088.50       1018144.31       18826756.0    
  0.578125000      0.171875000       2397762.00       1073403.25       18669436.0    
  0.609375000      0.171875000       2157379.00       1103507.38       18527126.0    
  0.640625000      0.171875000       1918841.75       1111480.50       18399846.0    
  0.671875000      0.171875000       1686202.75       1100601.88       18287344.0    
  0.703125000      0.171875000       1462954.50       1074262.25       18189134.0    
  0.734375000      0.171875000       1251805.00       1036060.25       18104528.0    
  0.765625000      0.171875000       1054613.00       989642.250       18032702.0    
  0.796875000      0.171875000       872484.375       938655.188       17972736.0    
  0.828125000      0.171875000       705628.500       886666.062       17923668.0    
  0.859375000      0.171875000       553550.125       837146.875       17884552.0    
  0.890625000      0.171875000       414889.219       793202.125       17854488.0    
  0.921875000      0.171875000       287532.969       757617.250       17832700.0    
  0.953125000      0.171875000       168823.812       732617.812       17818552.0    
  0.984375000      0.171875000       55623.3789       719712.625       17811600.0    
   1.56250000E-02  0.203125000       330770.062      -3237897.25       22017008.0    
   4.68750000E-02  0.203125000       981399.875      -3151491.00       21975622.0    
   7.81250000E-02  0.203125000       1600323.38      -2983543.50       21894240.0    
  0.109375000      0.203125000       2169083.00      -2743036.75       21775468.0    
  0.140625000      0.203125000       2672287.50      -2442320.00       21622984.0    
  0.171875000      0.203125000       3098515.50      -2096040.62       21441318.0    
  0.203125000      0.203125000       3440736.50      -1719766.25       21235574.0    
  0.234375000      0.203125000       3696154.00      -1329007.62       21011158.0    
  0.265625000      0.203125000       3865732.25      -938048.125       20773520.0    
  0.296875000      0.203125000       3953637.50      -559350.500       20527942.0    
  0.328125000      0.203125000       3966472.50      -203205.781       20279350.0    
  0.359375000      0.203125000       3912518.50       122595.742       20032194.0    
  0.390625000      0.203125000       3801046.50       412568.562       19790364.0    
  0.421875000      0.203125000       3641627.00       663354.875       19557156.0    
  0.453125000      0.203125000       3443793.75       873550.812       19335264.0    
  0.484375000      0.203125000       3216730.50       1043224.06       19126792.0    
  0.515625000      0.203125000       2969063.00       1173674.00       18933286.0    
  0.546875000      0.203125000       2708538.50       1267126.75       18755772.0    
  0.578125000      0.203125000       2442008.75       1326560.00       18594828.0    
  0.609375000      0.203125000       2175527.00       1355478.25       18450624.0    
  0.640625000      0.203125000       1914346.00       1357513.50       18322982.0    
  0.671875000      0.203125000       1662854.25       1336760.50       18211416.0    
  0.703125000      0.203125000       1424640.00       1297474.00       18115200.0    
  0.734375000      0.203125000       1202506.50       1243987.62       18033400.0    
  0.765625000      0.203125000       998360.625       1180795.50       17964940.0    
  0.796875000      0.203125000       813293.000       1112375.25       17908648.0    
  0.828125000      0.203125000       647481.500       1043189.38       17863312.0    
  0.859375000      0.203125000       500127.500       977609.750       17827738.0    
  0.890625000      0.203125000       369488.125       919543.750       17800814.0    
  0.921875000      0.203125000       252954.719       872618.438       17781564.0    
  0.953125000      0.203125000       147150.562       839653.500       17769202.0    
  0.984375000      0.203125000       48233.4297       822605.875       17763174.0    
   1.56250000E-02  0.234375000       379336.062      -3947271.00       22239820.0    
   4.68750000E-02  0.234375000       1124333.00      -3836581.50       22192356.0    
   7.81250000E-02  0.234375000       1829638.38      -3621909.50       22099172.0    
  0.109375000      0.234375000       2472433.00      -3315505.50       21963528.0    
  0.140625000      0.234375000       3034198.50      -2934191.00       21789994.0    
  0.171875000      0.234375000       3501744.50      -2497557.00       21584144.0    
  0.203125000      0.234375000       3867630.25      -2026230.25       21352194.0    
  0.234375000      0.234375000       4129901.00      -1540304.25       21100644.0    
  0.265625000      0.234375000       4291372.00      -1057991.00       20835950.0    
  0.296875000      0.234375000       4358561.00      -594865.125       20564256.0    
  0.328125000      0.234375000       4340813.00      -163271.797       20291200.0    
  0.359375000      0.234375000       4249170.00       227752.406       20021748.0    
  0.390625000      0.234375000       4095338.00       572088.438       19760160.0    
  0.421875000      0.234375000       3891211.50       866542.250       19509948.0    
  0.453125000      0.234375000       3648259.75       1110064.25       19273884.0    
  0.484375000      0.234375000       3377122.25       1303524.00       19054046.0    
  0.515625000      0.234375000       3087495.75       1449214.38       18851876.0    
  0.546875000      0.234375000       2787974.50       1550226.25       18668240.0    
  0.578125000      0.234375000       2486113.50       1610450.12       18503506.0    
  0.609375000      0.234375000       2188332.50       1634302.88       18357596.0    
  0.640625000      0.234375000       1900124.00       1626392.50       18230076.0    
  0.671875000      0.234375000       1626163.25       1591582.00       18120182.0    
  0.703125000      0.234375000       1370181.75       1534957.38       18026896.0    
  0.734375000      0.234375000       1135126.62       1461700.12       17948988.0    
  0.765625000      0.234375000       923000.500       1377214.88       17885072.0    
  0.796875000      0.234375000       734879.688       1286886.50       17833668.0    
  0.828125000      0.234375000       570861.500       1196222.25       17793256.0    
  0.859375000      0.234375000       429903.062       1110525.75       17762344.0    
  0.890625000      0.234375000       309899.562       1034851.00       17739542.0    
  0.921875000      0.234375000       207642.578       973674.625       17723622.0    
  0.953125000      0.234375000       118808.047       930714.125       17713596.0    
  0.984375000      0.234375000       38572.8672       908550.250       17708776.0    
   1.56250000E-02  0.265625000       441429.625      -4766918.00       22509908.0    
   4.68750000E-02  0.265625000       1306729.25      -4625452.50       22454672.0    
   7.81250000E-02  0.265625000       2121398.50      -4351730.50       22346442.0    
  0.109375000      0.265625000       2856803.00      -3962641.25       22189362.0    
  0.140625000      0.265625000       3490236.25      -3481092.00       21989216.0    
  0.171875000      0.265625000       4006476.50      -2933491.00       21752984.0    
  0.203125000      0.265625000       4397989.00      -2347064.50       21488348.0    
  0.234375000      0.265625000       4664393.50      -1747742.00       21203224.0    
  0.265625000      0.265625000       4811171.50      -1158613.25       20905336.0    
  0.296875000      0.265625000       4848377.00      -598689.375       20601910.0    
  0.328125000      0.265625000       4789110.50      -82484.8438       20299410.0    
  0.359375000      0.265625000       4647879.00       379737.531       20003410.0    
  0.390625000      0.265625000       4439836.00       781752.000       19718568.0    
  0.421875000      0.265625000       4179602.75       1120801.50       19448580.0    
  0.453125000      0.265625000       3880775.50       1396848.00       19196272.0    
  0.484375000      0.265625000       3555880.50       1611931.50       18963640.0    
  0.515625000      0.265625000       3215765.25       1769530.12       18751944.0    
  0.546875000      0.265625000       2869774.00       1874160.50       18561824.0    
  0.578125000      0.265625000       2526085.25       1930849.50       18393372.0    
  0.609375000      0.265625000       2191469.25       1944975.00       18246206.0    
  0.640625000      0.265625000       1871625.00       1922201.25       18119572.0    
  0.671875000      0.265625000       1571419.25       1868303.75       18012376.0    
  0.703125000      0.265625000       1294758.25       1789136.25       17923256.0    
  0.734375000      0.265625000       1044763.94       1690807.75       17850630.0    
  0.765625000      0.265625000       823546.375       1579525.75       17792746.0    
  0.796875000      0.265625000       632301.875       1461821.38       17747760.0    
  0.828125000      0.265625000       471119.969       1344265.25       17713768.0    
  0.859375000      0.265625000       338754.750       1233441.00       17688914.0    
  0.890625000      0.265625000       232638.547       1135682.25       17671454.0    
  0.921875000      0.265625000       148817.875       1056595.25       17659854.0    
  0.953125000      0.265625000       82023.4844       1000986.31       17652864.0    
  0.984375000      0.265625000       26066.9844       972316.438       17649608.0    
   1.56250000E-02  0.296875000       520766.969      -5727533.00       22834966.0    
   4.68750000E-02  0.296875000       1539483.00      -5546250.00       22769798.0    
   7.81250000E-02  0.296875000       2492448.50      -5196483.50       22642380.0    
  0.109375000      0.296875000       3343073.25      -4701850.00       22458092.0    
  0.140625000      0.296875000       4063348.50      -4093788.50       22224372.0    
  0.171875000      0.296875000       4635772.00      -3407943.00       21950096.0    
  0.203125000      0.296875000       5053379.50      -2680434.50       21644882.0    
  0.234375000      0.296875000       5318352.50      -1944750.38       21318468.0    
  0.265625000      0.296875000       5440425.00      -1229779.25       20980192.0    
  0.296875000      0.296875000       5434686.50      -558454.750       20638570.0    
  0.328125000      0.296875000       5319238.00       52520.3320       20301044.0    
  0.359375000      0.296875000       5113407.00       592101.688       19973860.0    
  0.390625000      0.296875000       4836402.00       1054590.00       19662060.0    
  0.421875000      0.296875000       4506307.50       1438290.50       19369502.0    
  0.453125000      0.296875000       4139389.75       1744818.25       19098964.0    
  0.484375000      0.296875000       3749804.50       1978024.00       18852270.0    
  0.515625000      0.296875000       3349725.00       2143083.50       18630428.0    
  0.546875000      0.296875000       2949294.00       2246211.50       18433740.0    
  0.578125000      0.296875000       2556928.00       2293907.00       18261946.0    
  0.609375000      0.296875000       2179684.25       2292685.50       18114296.0    
  0.640625000      0.296875000       1823452.75       2249316.25       17989648.0    
  0.671875000      0.296875000       1493098.25       2170407.75       17886516.0    
  0.703125000      0.296875000       1192685.75       2062614.50       17803150.0    
  0.734375000      0.296875000       925511.875       1932879.00       17737556.0    
  0.765625000      0.296875000       694013.375       1788382.75       17687576.0    
  0.796875000      0.296875000       499623.344       1636748.88       17650904.0    
  0.828125000      0.296875000       342481.875       1485744.25       17625200.0    
  0.859375000      0.296875000       221319.953       1343486.25       17608150.0    
  0.890625000      0.296875000       133053.906       1217822.50       17597574.0    
  0.921875000      0.296875000       72946.7188       1116090.25       17591544.0    
  0.953125000      0.296875000       34527.3672       1044437.38       17588472.0    
  0.984375000      0.296875000       9901.19727       1007427.31       17587238.0    
   1.56250000E-02  0.328125000       622673.438      -6868761.00       23224828.0    
   4.68750000E-02  0.328125000       1837735.50      -6634910.50       23146900.0    
   7.81250000E-02  0.328125000       2965796.50      -6185566.00       22994924.0    
  0.109375000      0.328125000       3959500.00      -5553973.00       22776008.0    
  0.140625000      0.328125000       4784143.50      -4783889.00       22499872.0    
  0.171875000      0.328125000       5419830.50      -3923723.50       22177952.0    
  0.203125000      0.328125000       5861182.00      -3021578.25       21822442.0    
  0.234375000      0.328125000       6115049.00      -2120692.00       21445438.0    
  0.265625000      0.328125000       6197467.00      -1256886.00       21058268.0    
  0.296875000      0.328125000       6130633.50      -457447.000       20671018.0    
  0.328125000      0.328125000       5939624.50       259136.453       20292220.0    
  0.359375000      0.328125000       5649949.00       881884.375       19928834.0    
  0.390625000      0.328125000       5286025.00       1406390.00       19586234.0    
  0.421875000      0.328125000       4869831.00       1833208.25       19268330.0    
  0.453125000      0.328125000       4420509.00       2166423.75       18977748.0    
  0.484375000      0.328125000       3954146.25       2412418.50       18716004.0    
  0.515625000      0.328125000       3483952.75       2578882.50       18483712.0    
  0.546875000      0.328125000       3020597.50       2673951.00       18280736.0    
  0.578125000      0.328125000       2572559.25       2705917.50       18106356.0    
  0.609375000      0.328125000       2146878.50       2682722.75       17959376.0    
  0.640625000      0.328125000       1749347.50       2612114.75       17838196.0    
  0.671875000      0.328125000       1384717.50       2501424.00       17740896.0    
  0.703125000      0.328125000       1057226.75       2358099.00       17665282.0    
  0.734375000      0.328125000       770528.000       2189798.75       17608912.0    
  0.765625000      0.328125000       527418.875       2004587.25       17569122.0    
  0.796875000      0.328125000       329667.406       1811114.38       17543112.0    
  0.828125000      0.328125000       177857.328       1618659.25       17528012.0    