 VARIABLES="X","Y","U","V","P"
 ZONE F=POINT, I=          32 , J=          32
   1.56250000E-02   1.56250000E-02   1.74773231E-04  -1.76867412E-04   3.15012559E-02
   4.68750000E-02   1.56250000E-02   5.10348182E-04  -1.63606426E-04   3.14743146E-02
   7.81250000E-02   1.56250000E-02   6.95325318E-04  -2.69678221E-05   3.14025879E-02
  0.109375000       1.56250000E-02   5.87823626E-04   1.28925618E-04   3.12974341E-02
  0.140625000       1.56250000E-02   1.66717044E-04   2.86734750E-04   3.11663058E-02
  0.171875000       1.56250000E-02  -5.83236106E-04   4.57894756E-04   3.10131721E-02
  0.203125000       1.56250000E-02  -1.69950281E-03   6.53192925E-04   3.08413673E-02
  0.234375000       1.56250000E-02  -3.23119620E-03   8.73498619E-04   3.06559652E-02
  0.265625000       1.56250000E-02  -5.21742459E-03   1.10793591E-03   3.04654837E-02
  0.296875000       1.56250000E-02  -7.66244996E-03   1.33251958E-03   3.02831642E-02
  0.328125000       1.56250000E-02  -1.05079450E-02   1.50863931E-03   3.01275216E-02
  0.359375000       1.56250000E-02  -1.36048980E-02   1.58419681E-03   3.00212651E-02
  0.390625000       1.56250000E-02  -1.66934449E-02   1.50041317E-03   2.99877301E-02
  0.421875000       1.56250000E-02  -1.94030385E-02   1.20536017E-03   3.00442651E-02
  0.453125000       1.56250000E-02  -2.12845858E-02   6.72398426E-04   3.01933698E-02
  0.484375000       1.56250000E-02  -2.18793042E-02  -8.15285603E-05   3.04137506E-02
  0.515625000       1.56250000E-02  -2.08178479E-02  -9.83915525E-04   3.06560863E-02
  0.546875000       1.56250000E-02  -1.79270990E-02  -1.91100943E-03   3.08441129E-02
  0.578125000       1.56250000E-02  -1.33083425E-02  -2.71210889E-03   3.08866892E-02
  0.609375000       1.56250000E-02  -7.36819161E-03  -3.23253614E-03   3.06999069E-02
  0.640625000       1.56250000E-02  -7.90466438E-04  -3.34972749E-03   3.02342847E-02
  0.671875000       1.56250000E-02   5.56525681E-03  -3.01045110E-03   2.94975098E-02
  0.703125000       1.56250000E-02   1.08360145E-02  -2.26456602E-03   2.85582691E-02
  0.734375000       1.56250000E-02   1.43586453E-02  -1.26204744E-03   2.75300629E-02
  0.765625000       1.56250000E-02   1.58351045E-02  -2.18065470E-04   2.65366230E-02
  0.796875000       1.56250000E-02   1.53867248E-02   6.63110230E-04   2.56763417E-02
  0.828125000       1.56250000E-02   1.34612396E-02   1.25932053E-03   2.50021461E-02
  0.859375000       1.56250000E-02   1.06429067E-02   1.55617448E-03   2.45237947E-02
  0.890625000       1.56250000E-02   7.47559220E-03   1.60844740E-03   2.42217723E-02
  0.921875000       1.56250000E-02   4.39913524E-03   1.46540790E-03   2.40662377E-02
  0.953125000       1.56250000E-02   1.84121309E-03   1.08996674E-03   2.40292866E-02
  0.984375000       1.56250000E-02   3.74990428E-04   3.74198105E-04   2.40768753E-02
   1.56250000E-02   4.68750000E-02   1.46890176E-04  -5.03467687E-04   3.15281600E-02
   4.68750000E-02   4.68750000E-02   2.46768002E-04  -2.83762172E-04   3.14985290E-02
   7.81250000E-02   4.68750000E-02  -1.93445027E-04   3.35735560E-04   3.14331017E-02
  0.109375000       4.68750000E-02  -1.37076166E-03   1.03848579E-03   3.13401967E-02
  0.140625000       4.68750000E-02  -3.36620864E-03   1.78139238E-03   3.12245879E-02
  0.171875000       4.68750000E-02  -6.26917323E-03   2.60409922E-03   3.10888514E-02
  0.203125000       4.68750000E-02  -1.01898722E-02   3.53224343E-03   3.09351571E-02
  0.234375000       4.68750000E-02  -1.52199008E-02   4.54488490E-03   3.07667032E-02
  0.265625000       4.68750000E-02  -2.13749278E-02   5.56702772E-03   3.05890869E-02
  0.296875000       4.68750000E-02  -2.85341106E-02   6.46741875E-03   3.04117873E-02
  0.328125000       4.68750000E-02  -3.63876745E-02   7.06317136E-03   3.02494373E-02
  0.359375000       4.68750000E-02  -4.44111675E-02   7.14105275E-03   3.01218759E-02
  0.390625000       4.68750000E-02  -5.18868268E-02   6.49919268E-03   3.00517492E-02
  0.421875000       4.68750000E-02  -5.79803586E-02   5.00146067E-03   3.00587174E-02
  0.453125000       4.68750000E-02  -6.18598312E-02   2.62919744E-03   3.01504582E-02
  0.484375000       4.68750000E-02  -6.28279820E-02  -4.83672251E-04   3.03126164E-02
  0.515625000       4.68750000E-02  -6.04401752E-02  -4.03953949E-03   3.05014998E-02
  0.546875000       4.68750000E-02  -5.45849428E-02  -7.61029031E-03   3.06446068E-02
  0.578125000       4.68750000E-02  -4.55225930E-02  -1.07033039E-02   3.06530986E-02
  0.609375000       4.68750000E-02  -3.38970609E-02  -1.28167449E-02   3.04434523E-02
  0.640625000       4.68750000E-02  -2.07131896E-02  -1.35369841E-02   2.99658589E-02
  0.671875000       4.68750000E-02  -7.25399330E-03  -1.26478672E-02   2.92279981E-02
  0.703125000       4.68750000E-02   5.07245027E-03  -1.02337264E-02   2.83015165E-02
  0.734375000       4.68750000E-02   1.49596222E-02  -6.71148207E-03   2.73023061E-02
  0.765625000       4.68750000E-02   2.14760620E-02  -2.76963064E-03   2.63550822E-02
  0.796875000       4.68750000E-02   2.42710486E-02   8.60657368E-04   2.55548395E-02
  0.828125000       4.68750000E-02   2.36261263E-02   3.62537242E-03   2.49455385E-02
  0.859375000       4.68750000E-02   2.03183796E-02   5.30985929E-03   2.45234184E-02
  0.890625000       4.68750000E-02   1.53606804E-02   5.97374700E-03   2.42591333E-02
  0.921875000       4.68750000E-02   9.79411416E-03   5.73729817E-03   2.41178665E-02
  0.953125000       4.68750000E-02   4.65674605E-03   4.50764364E-03   2.40749717E-02
  0.984375000       4.68750000E-02   1.16372749E-03   1.91101572E-03   2.41228323E-02
   1.56250000E-02   7.81250000E-02  -9.66355001E-05  -5.59432548E-04   3.16036344E-02
   4.68750000E-02   7.81250000E-02  -7.90280057E-04   3.53102863E-04   3.15591395E-02
   7.81250000E-02   7.81250000E-02  -2.55174539E-03   1.88630563E-03   3.14915068E-02
  0.109375000       7.81250000E-02  -5.48906066E-03   3.58847738E-03   3.14041339E-02
  0.140625000       7.81250000E-02  -9.72017460E-03   5.44414576E-03   3.12972702E-02
  0.171875000       7.81250000E-02  -1.54211149E-02   7.53177516E-03   3.11698131E-02
  0.203125000       7.81250000E-02  -2.27698199E-02   9.86094959E-03   3.10202744E-02
  0.234375000       7.81250000E-02  -3.18569094E-02   1.23208379E-02   3.08474079E-02
  0.265625000       7.81250000E-02  -4.25957218E-02   1.46731492E-02   3.06516998E-02
  0.296875000       7.81250000E-02  -5.46505749E-02   1.65643748E-02   3.04379463E-02
  0.328125000       7.81250000E-02  -6.74070045E-02   1.75661035E-02   3.02183665E-02
  0.359375000       7.81250000E-02  -8.00062865E-02   1.72516461E-02   3.00143939E-02
  0.390625000       7.81250000E-02  -9.14445370E-02   1.52940284E-02   2.98550334E-02
  0.421875000       7.81250000E-02 -0.100706115       1.15538109E-02   2.97702737E-02
  0.453125000       7.81250000E-02 -0.106888257       6.13083923E-03   2.97801066E-02
  0.484375000       7.81250000E-02 -0.109287784      -6.25240034E-04   2.98821926E-02
  0.515625000       7.81250000E-02 -0.107446492      -8.13494809E-03   3.00389156E-02
  0.546875000       7.81250000E-02 -0.101185486      -1.56394579E-02   3.01782861E-02
  0.578125000       7.81250000E-02  -9.06493515E-02  -2.22815126E-02   3.02077420E-02
  0.609375000       7.81250000E-02  -7.63533115E-02  -2.71695089E-02   3.00336964E-02
  0.640625000       7.81250000E-02  -5.92192709E-02  -2.95118764E-02   2.95927078E-02
  0.671875000       7.81250000E-02  -4.05713394E-02  -2.87899151E-02   2.88804378E-02
  0.703125000       7.81250000E-02  -2.20522638E-02  -2.49468014E-02   2.79639903E-02
  0.734375000       7.81250000E-02  -5.42417914E-03  -1.85227990E-02   2.69666314E-02
  0.765625000       7.81250000E-02   7.73505028E-03  -1.06425080E-02   2.60269269E-02
  0.796875000       7.81250000E-02   1.63883343E-02  -2.72262609E-03   2.52513830E-02
  0.828125000       7.81250000E-02   2.02878863E-02   3.94669827E-03   2.46894192E-02
  0.859375000       7.81250000E-02   1.99622996E-02   8.61498713E-03   2.43271347E-02
  0.890625000       7.81250000E-02   1.64889731E-02   1.10930707E-02   2.41192263E-02
  0.921875000       7.81250000E-02   1.12171005E-02   1.14500225E-02   2.40179300E-02
  0.953125000       7.81250000E-02   5.62490243E-03   9.51819494E-03   2.39951946E-02
  0.984375000       7.81250000E-02   1.47025532E-03   4.54279594E-03   2.40568910E-02
   1.56250000E-02  0.109375000      -4.85525641E-04   1.69584528E-05   3.17115113E-02
   4.68750000E-02  0.109375000      -2.37119314E-03   2.34301691E-03   3.16425078E-02
   7.81250000E-02  0.109375000      -5.98632870E-03   5.25860768E-03   3.15664597E-02
  0.109375000      0.109375000      -1.12512009E-02   8.40418972E-03   3.14774066E-02
  0.140625000      0.109375000      -1.83073450E-02   1.19018219E-02   3.13680172E-02
  0.171875000      0.109375000      -2.74183899E-02   1.58726461E-02   3.12305875E-02
  0.203125000      0.109375000      -3.88072096E-02   2.02447753E-02   3.10563929E-02
  0.234375000      0.109375000      -5.25103733E-02   2.47152057E-02   3.08357496E-02
  0.265625000      0.109375000      -6.82754219E-02   2.87715532E-02   3.05606760E-02
  0.296875000      0.109375000      -8.55177939E-02   3.17532569E-02   3.02301347E-02
  0.328125000      0.109375000     -0.103354603       3.29617411E-02   2.98561342E-02
  0.359375000      0.109375000     -0.120710023       3.18032354E-02   2.94674113E-02
  0.390625000      0.109375000     -0.136453539       2.79178731E-02   2.91076005E-02
  0.421875000      0.109375000     -0.149521172       2.12537553E-02   2.88266689E-02
  0.453125000      0.109375000     -0.158991322       1.20783504E-02   2.86668576E-02
  0.484375000      0.109375000     -0.164117873       9.48698143E-04   2.86474302E-02
  0.515625000      0.109375000     -0.164341092      -1.13317790E-02   2.87497491E-02
  0.546875000      0.109375000     -0.159306675      -2.37433389E-02   2.89079659E-02
  0.578125000      0.109375000     -0.148918778      -3.51076163E-02   2.90291384E-02
  0.609375000      0.109375000     -0.133413821      -4.41510417E-02   2.90047992E-02
  0.640625000      0.109375000     -0.113448411      -4.96370830E-02   2.87431031E-02
  0.671875000      0.109375000      -9.01921391E-02  -5.05766198E-02   2.82039326E-02
  0.703125000      0.109375000      -6.53655455E-02  -4.65136394E-02   2.74231657E-02
  0.734375000      0.109375000      -4.11381088E-02  -3.78192887E-02   2.65101679E-02
  0.765625000      0.109375000      -1.98113937E-02  -2.58395132E-02   2.56125573E-02
  0.796875000      0.109375000      -3.30466311E-03  -1.26928343E-02   2.48611737E-02
  0.828125000      0.109375000       7.35871680E-03  -6.52879709E-04   2.43243463E-02
  0.859375000      0.109375000       1.22721121E-02   8.62019509E-03   2.40018126E-02
  0.890625000      0.109375000       1.24424808E-02   1.43844653E-02   2.38403771E-02
  0.921875000      0.109375000       9.40844882E-03   1.64583027E-02   2.37792339E-02
  0.953125000      0.109375000       4.99345688E-03   1.45109519E-02   2.37796530E-02
  0.984375000      0.109375000       1.34101405E-03   7.35190976E-03   2.38445215E-02
   1.56250000E-02  0.140625000      -9.96466377E-04   1.49310182E-03   3.18250172E-02
   4.68750000E-02  0.140625000      -4.39406373E-03   6.13696873E-03   3.17250565E-02
   7.81250000E-02  0.140625000      -1.02779632E-02   1.09491656E-02   3.16355675E-02
  0.109375000      0.140625000      -1.83213484E-02   1.60076395E-02   3.15348431E-02
  0.140625000      0.140625000      -2.86879651E-02   2.17073038E-02   3.14035118E-02
  0.171875000      0.140625000      -4.17153575E-02   2.81924009E-02   3.12225930E-02
  0.203125000      0.140625000      -5.76254576E-02   3.52116078E-02   3.09703052E-02
  0.234375000      0.140625000      -7.63377845E-02   4.21526730E-02   3.06223333E-02
  0.265625000      0.140625000      -9.73860919E-02   4.81376685E-02   3.01575623E-02
  0.296875000      0.140625000     -0.119932413       5.21677323E-02   2.95680612E-02
  0.328125000      0.140625000     -0.142866924       5.33122607E-02   2.88693793E-02
  0.359375000      0.140625000     -0.164955884       5.08925579E-02   2.81060096E-02
  0.390625000      0.140625000     -0.184986323       4.45995703E-02   2.73484513E-02
  0.421875000      0.140625000     -0.201870576       3.45223285E-02   2.66812816E-02
  0.453125000      0.140625000     -0.214700520       2.11091731E-02   2.61848308E-02
  0.484375000      0.140625000     -0.222757339       5.10095153E-03   2.59152781E-02
  0.515625000      0.140625000     -0.225489795      -1.25287212E-02   2.58910358E-02
  0.546875000      0.140625000     -0.222473338      -3.05981431E-02   2.60692462E-02
  0.578125000      0.140625000     -0.213408798      -4.77069318E-02   2.63658985E-02
  0.609375000      0.140625000     -0.198179781      -6.22883290E-02   2.66596749E-02
  0.640625000      0.140625000     -0.176971093      -7.26775229E-02   2.68192366E-02
  0.671875000      0.140625000     -0.150469393      -7.72986859E-02   2.67407969E-02
  0.703125000      0.140625000     -0.120087102      -7.50056803E-02   2.63856761E-02
  0.734375000      0.140625000      -8.80905241E-02  -6.55569658E-02   2.58016065E-02
  0.765625000      0.140625000      -5.74519560E-02  -5.00731319E-02   2.51105595E-02
  0.796875000      0.140625000      -3.12713310E-02  -3.11527066E-02   2.44599991E-02
  0.828125000      0.140625000      -1.18507594E-02  -1.22830998E-02   2.39609387E-02
  0.859375000      0.140625000       7.37800729E-05   3.40637146E-03   2.36509554E-02
  0.890625000      0.140625000       5.34274150E-03   1.41528994E-02   2.35004462E-02
  0.921875000      0.140625000       5.74766472E-03   1.93129629E-02   2.34502070E-02
  0.953125000      0.140625000       3.48379789E-03   1.83291752E-02   2.34536305E-02
  0.984375000      0.140625000       9.87012638E-04   9.67784412E-03   2.35040747E-02
   1.56250000E-02  0.171875000      -1.61214778E-03   4.09580301E-03   3.19044329E-02
   4.68750000E-02  0.171875000      -6.77057914E-03   1.20769963E-02   3.17691937E-02
   7.81250000E-02  0.171875000      -1.52155757E-02   1.93234198E-02   3.16601954E-02
  0.109375000      0.171875000      -2.63423733E-02   2.67893523E-02   3.15317027E-02
  0.140625000      0.171875000      -4.03335094E-02   3.52697521E-02   3.13459709E-02
  0.171875000      0.171875000      -5.75612336E-02   4.48724218E-02   3.10653895E-02
  0.203125000      0.171875000      -7.81726390E-02   5.50417528E-02   3.06462739E-02
  0.234375000      0.171875000     -0.101889521       6.47420883E-02   3.00413277E-02
  0.265625000      0.171875000     -0.127969339       7.26687759E-02   2.92116292E-02
  0.296875000      0.171875000     -0.155284658       7.74930045E-02   2.81440392E-02
  0.328125000      0.171875000     -0.182484269       7.81182870E-02   2.68668309E-02
  0.359375000      0.171875000     -0.208186939       7.38777369E-02   2.54560243E-02
  0.390625000      0.171875000     -0.231155962       6.46155104E-02   2.40284950E-02
  0.421875000      0.171875000     -0.250413418       5.06514460E-02   2.27229074E-02
  0.453125000      0.171875000     -0.265271485       3.26725915E-02   2.16741972E-02
  0.484375000      0.171875000     -0.275281578       1.16094872E-02   2.09881533E-02
  0.515625000      0.171875000     -0.280128300      -1.14530418E-02   2.07248684E-02
  0.546875000      0.171875000     -0.279507399      -3.53066362E-02   2.08868757E-02
  0.578125000      0.171875000     -0.273029149      -5.85377030E-02   2.14102492E-02
  0.609375000      0.171875000     -0.260211706      -7.95016661E-02   2.21749246E-02
  0.640625000      0.171875000     -0.240600139      -9.62834656E-02   2.30187029E-02
  0.671875000      0.171875000     -0.214025125     -0.106769890       2.37654820E-02
  0.703125000      0.171875000     -0.181003958     -0.108939692       2.42654495E-02
  0.734375000      0.171875000     -0.143188715     -0.101437643       2.44398564E-02
  0.765625000      0.171875000     -0.103638202      -8.43853876E-02   2.43107565E-02
  0.796875000      0.171875000      -6.65528774E-02  -6.01109825E-02   2.39915773E-02
  0.828125000      0.171875000      -3.61685902E-02  -3.31347995E-02   2.36312561E-02
  0.859375000      0.171875000      -1.50802741E-02  -8.76024086E-03   2.33432688E-02
  0.890625000      0.171875000      -3.22206249E-03   9.18668695E-03   2.31678691E-02
  0.921875000      0.171875000       1.48192130E-03   1.91645380E-02   2.30829641E-02
  0.953125000      0.171875000       1.81479240E-03   2.04028413E-02   2.30538324E-02
  0.984375000      0.171875000       6.24009816E-04   1.12868426E-02   2.30712630E-02
   1.56250000E-02  0.203125000      -2.29954766E-03   8.00157338E-03   3.18945944E-02
   4.68750000E-02  0.203125000      -9.36367176E-03   2.03804672E-02   3.17209214E-02
   7.81250000E-02  0.203125000      -2.05011442E-02   3.05878650E-02   3.15825678E-02
  0.109375000      0.203125000      -3.48135494E-02   4.09501493E-02   3.14003043E-02
  0.140625000      0.203125000      -5.24770766E-02   5.27505912E-02   3.11096646E-02
  0.171875000      0.203125000      -7.38230571E-02   6.59536570E-02   3.06441337E-02
  0.203125000      0.203125000      -9.88170207E-02   7.95561597E-02   2.99270432E-02
  0.234375000      0.203125000     -0.126874983       9.19951946E-02   2.88803410E-02
  0.265625000      0.203125000     -0.156889319      0.101505309       2.74475720E-02
  0.296875000      0.203125000     -0.187389955      0.106470972       2.56216638E-02
  0.328125000      0.203125000     -0.216791183      0.105742775       2.34651323E-02
  0.359375000      0.203125000     -0.243659228       9.88284945E-02   2.11121645E-02
  0.390625000      0.203125000     -0.266923577       8.59051198E-02   1.87498983E-02
  0.421875000      0.203125000     -0.285969228       6.76738173E-02   1.65856853E-02
  0.453125000      0.203125000     -0.300589561       4.51387540E-02   1.48117226E-02
  0.484375000      0.203125000     -0.310832202       1.94067284E-02   1.35777052E-02
  0.515625000      0.203125000     -0.316799998      -8.42515565E-03   1.29743731E-02
  0.546875000      0.203125000     -0.318467855      -3.72775197E-02   1.30463690E-02
  0.578125000      0.203125000     -0.315516889      -6.59871250E-02   1.37625206E-02
  0.609375000      0.203125000     -0.307243347      -9.31356847E-02   1.50272483E-02
  0.640625000      0.203125000     -0.292606592     -0.116891854       1.66838095E-02
  0.671875000      0.203125000     -0.270442843     -0.134896129       1.85196064E-02
  0.703125000      0.203125000     -0.239914209     -0.144360989       2.02859193E-02
  0.734375000      0.203125000     -0.201199874     -0.142545402       2.17407532E-02
  0.765625000      0.203125000     -0.156287313     -0.127741843       2.27141883E-02
  0.796875000      0.203125000     -0.109451652     -0.100678071       2.31710151E-02
  0.828125000      0.203125000      -6.67224154E-02  -6.56849295E-02   2.32228246E-02
  0.859375000      0.203125000      -3.37700024E-02  -3.02553754E-02   2.30616089E-02
  0.890625000      0.203125000      -1.30364038E-02  -1.91507023E-03   2.28582043E-02
  0.921875000      0.203125000      -2.87321326E-03   1.53937601E-02   2.26988662E-02
  0.953125000      0.203125000       3.74719442E-04   2.05873437E-02   2.25989670E-02
  0.984375000      0.203125000       3.77120712E-04   1.22860335E-02   2.25660335E-02
   1.56250000E-02  0.234375000      -3.00156465E-03   1.32968295E-02   3.17258090E-02
   4.68750000E-02  0.234375000      -1.19643286E-02   3.10989730E-02   3.15108858E-02
   7.81250000E-02  0.234375000      -2.57149916E-02   4.47432846E-02   3.13270912E-02
  0.109375000      0.234375000      -4.30478379E-02   5.84266298E-02   3.10523733E-02
  0.140625000      0.234375000      -6.40721396E-02   7.39499331E-02   3.05858031E-02
  0.171875000      0.234375000      -8.89679044E-02   9.09860283E-02   2.98202038E-02
  0.203125000      0.234375000     -0.117393427      0.107935831       2.86363512E-02
  0.234375000      0.234375000     -0.148351982      0.122627750       2.69247238E-02
  0.265625000      0.234375000     -0.180312395      0.132846773       2.46247817E-02
  0.296875000      0.234375000     -0.211484224      0.136804998       2.17636898E-02
  0.328125000      0.234375000     -0.240172654      0.133504987       1.84740890E-02
  0.359375000      0.234375000     -0.265107214      0.122878656       1.49797248E-02
  0.390625000      0.234375000     -0.285634518      0.105658911       1.15533248E-02
  0.421875000      0.234375000     -0.301716447       8.30617100E-02   8.46532173E-03
  0.453125000      0.234375000     -0.313761830       5.64317480E-02   5.94298216E-03
  0.484375000      0.234375000     -0.322377086       2.69872136E-02   4.15001903E-03
  0.515625000      0.234375000     -0.328120291      -4.27925400E-03   3.18320235E-03
  0.546875000      0.234375000     -0.331301808      -3.65593955E-02   3.09518329E-03
  0.578125000      0.234375000     -0.331823528      -6.91210032E-02   3.88695905E-03
  0.609375000      0.234375000     -0.329035223     -0.101051658       5.50503749E-03
  0.640625000      0.234375000     -0.321654499     -0.130983025       7.84396101E-03
  0.671875000      0.234375000     -0.307820320     -0.156794563       1.07275322E-02
  0.703125000      0.234375000     -0.285385489     -0.175419807       1.38904424E-02
  0.734375000      0.234375000     -0.252599478     -0.182982892       1.69798639E-02
  0.765625000      0.234375000     -0.209224880     -0.175589591       1.96054056E-02
  0.796875000      0.234375000     -0.157850981     -0.151040018       2.14525182E-02
  0.828125000      0.234375000     -0.104642943     -0.111262172       2.24194732E-02
  0.859375000      0.234375000      -5.81895187E-02  -6.40872791E-02   2.26695128E-02
  0.890625000      0.234375000      -2.55255513E-02  -2.14849934E-02   2.25236230E-02
  0.921875000      0.234375000      -7.79588753E-03   7.06599979E-03   2.22758856E-02
  0.953125000      0.234375000      -9.27764748E-04   1.87939573E-02   2.20740810E-02
  0.984375000      0.234375000       2.41759888E-04   1.29030840E-02   2.19746605E-02
   1.56250000E-02  0.265625000      -3.63892107E-03   1.99316554E-02   3.13198753E-02
   4.68750000E-02  0.265625000      -1.43001005E-02   4.40754592E-02   3.10608000E-02
   7.81250000E-02  0.265625000      -3.03358976E-02   6.15397543E-02   3.08082476E-02
  0.109375000      0.265625000      -5.02146780E-02   7.88294673E-02   3.03900279E-02
  0.140625000      0.265625000      -7.38870129E-02   9.82332677E-02   2.96594817E-02
  0.171875000      0.265625000     -0.101262972      0.118966550       2.84594111E-02
  0.203125000      0.265625000     -0.131595224      0.138708532       2.66261883E-02
  0.234375000      0.265625000     -0.163434088      0.154651821       2.40324922E-02
  0.265625000      0.265625000     -0.194875062      0.164227635       2.06457786E-02
  0.296875000      0.265625000     -0.223963857      0.165692478       1.65708307E-02
  0.328125000      0.265625000     -0.249136478      0.158489972       1.20498659E-02
  0.359375000      0.265625000     -0.269541264      0.143247545       7.41495378E-03
  0.390625000      0.265625000     -0.285126328      0.121419214       3.01498477E-03
  0.421875000      0.265625000     -0.296486497       9.47617888E-02  -8.48841213E-04
  0.453125000      0.265625000     -0.304572195       6.48816377E-02  -3.95704247E-03
  0.484375000      0.265625000     -0.310392201       3.29915360E-02  -6.17308589E-03
  0.515625000      0.265625000     -0.314792752      -1.21282879E-04  -7.42609426E-03
  0.546875000      0.265625000     -0.318319738      -3.39912176E-02  -7.68709928E-03
  0.578125000      0.265625000     -0.321132600      -6.83381557E-02  -6.94727851E-03
  0.609375000      0.265625000     -0.322886527     -0.102853879      -5.22021204E-03
  0.640625000      0.265625000     -0.322556198     -0.136878461      -2.54005427E-03
  0.671875000      0.265625000     -0.318261683     -0.169016317       1.01208116E-03
  0.703125000      0.265625000     -0.307228595     -0.196656495       5.26204798E-03
  0.734375000      0.265625000     -0.286140442     -0.215613246       9.88685433E-03
  0.765625000      0.265625000     -0.252156019     -0.220313460       1.43872853E-02
  0.796875000      0.265625000     -0.204686433     -0.205157250       1.81568451E-02
  0.828125000      0.265625000     -0.147491097     -0.167548180       2.06946898E-02
  0.859375000      0.265625000      -8.96570981E-02 -0.112090461       2.18774900E-02
  0.890625000      0.265625000      -4.29633409E-02  -5.28427139E-02   2.20426396E-02
  0.921875000      0.265625000      -1.46472994E-02  -7.62607111E-03   2.17519868E-02
  0.953125000      0.265625000      -2.60361074E-03   1.45696532E-02   2.14327704E-02
  0.984375000      0.265625000       1.03526028E-04   1.32466909E-02   2.12491844E-02
   1.56250000E-02  0.296875000      -4.12077457E-03   2.76860483E-02   3.06019485E-02
   4.68750000E-02  0.296875000      -1.60702374E-02   5.89199439E-02   3.02959681E-02
   7.81250000E-02  0.296875000      -3.38094532E-02   8.04579258E-02   2.99457610E-02
  0.109375000      0.296875000      -5.54627068E-02  0.101432517       2.93257982E-02
  0.140625000      0.296875000      -8.07238668E-02  0.124555260       2.82379985E-02
  0.171875000      0.296875000     -0.109150767      0.148442209       2.64729392E-02
  0.203125000      0.296875000     -0.139573336      0.169986457       2.38338243E-02
  0.234375000      0.296875000     -0.170165002      0.185807660       2.02059019E-02
  0.265625000      0.296875000     -0.198826924      0.193182468       1.56297348E-02
  0.296875000      0.296875000     -0.223698109      0.190709651       1.03314994E-02
  0.328125000      0.296875000     -0.243613243      0.178576127       4.68503311E-03
  0.359375000      0.296875000     -0.258328259      0.158299431      -8.80201755E-04
  0.390625000      0.296875000     -0.268434107      0.132078230      -5.97766554E-03
  0.421875000      0.296875000     -0.275035560      0.102085218      -1.03246942E-02
  0.453125000      0.296875000     -0.279371500       7.00007230E-02  -1.37528311E-02
  0.484375000      0.296875000     -0.282534182       3.68756056E-02  -1.61828510E-02
  0.515625000      0.296875000     -0.285344660       3.22546484E-03  -1.75885987E-02
  0.546875000      0.296875000     -0.288343638      -3.07933129E-02  -1.79747511E-02
  0.578125000      0.296875000     -0.291823208      -6.52261302E-02  -1.73481647E-02
  0.609375000      0.296875000     -0.295809269     -0.100209668      -1.57033466E-02
  0.640625000      0.296875000     -0.299891770     -0.135755733      -1.30248684E-02
  0.671875000      0.296875000     -0.302887172     -0.171424955      -9.30099655E-03
  0.703125000      0.296875000     -0.302437007     -0.205719680      -4.56530880E-03
  0.734375000      0.296875000     -0.294802904     -0.235262915       1.02101616E-03
  0.765625000      0.296875000     -0.275310904     -0.254133105       7.05715548E-03
  0.796875000      0.296875000     -0.239923507     -0.254189968       1.28341578E-02
  0.828125000      0.296875000     -0.188061699     -0.227570415       1.74554978E-02
  0.859375000      0.296875000     -0.125784278     -0.172179699       2.02428456E-02
  0.890625000      0.296875000      -6.65381327E-02  -9.86952335E-02   2.12045684E-02
  0.921875000      0.296875000      -2.49885600E-02  -3.16422880E-02   2.10424140E-02
  0.953125000      0.296875000      -5.29208314E-03   6.84186770E-03   2.06093863E-02
  0.984375000      0.296875000      -1.88499194E-04   1.31602380E-02   2.03194935E-02
   1.56250000E-02  0.328125000      -4.36121039E-03   3.61632481E-02   2.95167957E-02
   4.68750000E-02  0.328125000      -1.69977956E-02   7.50182644E-02   2.91623902E-02
   7.81250000E-02  0.328125000      -3.56451273E-02  0.100735389       2.86845751E-02
  0.109375000      0.328125000      -5.80826476E-02  0.125236988       2.78074257E-02
  0.140625000      0.328125000      -8.36763829E-02  0.151599705       2.62821279E-02
  0.171875000      0.328125000     -0.111621514      0.177767575       2.38550715E-02
  0.203125000      0.328125000     -0.140410632      0.199875027       2.03204136E-02
  0.234375000      0.328125000     -0.168022200      0.214129359       1.56158824E-02
  0.265625000      0.328125000     -0.192415208      0.217927322       9.89742205E-03
  0.296875000      0.328125000     -0.212083697      0.210520104       3.53624392E-03
  0.328125000      0.328125000     -0.226449579      0.193065345      -2.97285989E-03
  0.359375000      0.328125000     -0.235922843      0.168019116      -9.14501958E-03
  0.390625000      0.328125000     -0.241619080      0.138182223      -1.46099944E-02
  0.421875000      0.328125000     -0.244901955      0.105887234      -1.91475116E-02
  0.453125000      0.328125000     -0.246981531       7.26354271E-02  -2.26625577E-02
  0.484375000      0.328125000     -0.248715878       3.91582660E-02  -2.51365378E-02
  0.515625000      0.328125000     -0.250620723       5.67745045E-03  -2.65836008E-02
  0.546875000      0.328125000     -0.252997130      -2.78517790E-02  -2.70306841E-02
  0.578125000      0.328125000     -0.256072402      -6.15958348E-02  -2.65020430E-02
  0.609375000      0.328125000     -0.260084808      -9.58256647E-02  -2.49957591E-02
  0.640625000      0.328125000     -0.265213072     -0.130914301      -2.24876106E-02
  0.671875000      0.328125000     -0.271267056     -0.167203575      -1.89260934E-02
  0.703125000      0.328125000     -0.277116537     -0.204529732      -1.42453983E-02
  0.734375000      0.328125000     -0.279970765     -0.241222247      -8.42297450E-03
  0.765625000      0.328125000     -0.274961561     -0.272666454      -1.61332451E-03
  0.796875000      0.328125000     -0.255816847     -0.290182441       5.65568451E-03
  0.828125000      0.328125000     -0.217404738     -0.281847924       1.23689249E-02