 VARIABLES="X","Y","U","V","P"
 ZONE F=POINT, I=          32 , J=          32
   1.56250000E-02   1.56250000E-02   1.88189078E-04  -1.90293489E-04   1.28237680E-02
   4.68750000E-02   1.56250000E-02   4.98549838E-04  -1.24842292E-04   1.27875963E-02
   7.81250000E-02   1.56250000E-02   5.60660032E-04   5.74421501E-05   1.27031934E-02
  0.109375000       1.56250000E-02   2.61501991E-04   2.36497450E-04   1.25857675E-02
  0.140625000       1.56250000E-02  -3.79294914E-04   3.99145531E-04   1.24438535E-02
  0.171875000       1.56250000E-02  -1.34672690E-03   5.63223148E-04   1.22815706E-02
  0.203125000       1.56250000E-02  -2.65822140E-03   7.43327197E-04   1.21030742E-02
  0.234375000       1.56250000E-02  -4.34866734E-03   9.42364917E-04   1.19146165E-02
  0.265625000       1.56250000E-02  -6.44955365E-03   1.15402683E-03   1.17258430E-02
  0.296875000       1.56250000E-02  -8.97380151E-03   1.36604684E-03   1.15504237E-02
  0.328125000       1.56250000E-02  -1.19055659E-02   1.56191515E-03   1.14063267E-02
  0.359375000       1.56250000E-02  -1.51925497E-02   1.72166270E-03   1.13157090E-02
  0.390625000       1.56250000E-02  -1.87400971E-02   1.82286324E-03   1.13041531E-02
  0.421875000       1.56250000E-02  -2.24079974E-02   1.84234860E-03   1.13990456E-02
  0.453125000       1.56250000E-02  -2.60112546E-02   1.75848010E-03   1.16270762E-02
  0.484375000       1.56250000E-02  -2.93254927E-02   1.55350170E-03   1.20108789E-02
  0.515625000       1.56250000E-02  -3.20967287E-02   1.21555082E-03   1.25649916E-02
  0.546875000       1.56250000E-02  -3.40549201E-02   7.40459014E-04   1.32912379E-02
  0.578125000       1.56250000E-02  -3.49336788E-02   1.36086353E-04   1.41735841E-02
  0.609375000       1.56250000E-02  -3.45168076E-02  -5.55077218E-04   1.51534099E-02
  0.640625000       1.56250000E-02  -3.26058455E-02  -1.35786401E-03   1.61409769E-02
  0.671875000       1.56250000E-02  -2.90672556E-02  -2.18260963E-03   1.70521718E-02
  0.703125000       1.56250000E-02  -2.39756927E-02  -2.91072018E-03   1.77901965E-02
  0.734375000       1.56250000E-02  -1.76604129E-02  -3.40626878E-03   1.82663724E-02
  0.765625000       1.56250000E-02  -1.07279653E-02  -3.52798821E-03   1.84255093E-02
  0.796875000       1.56250000E-02  -4.04412672E-03  -3.15804034E-03   1.82706080E-02
  0.828125000       1.56250000E-02   1.36285904E-03  -2.25183484E-03   1.78809147E-02
  0.859375000       1.56250000E-02   4.60973056E-03  -9.98792588E-04   1.73838958E-02
  0.890625000       1.56250000E-02   5.45410952E-03   1.49886473E-04   1.69136785E-02
  0.921875000       1.56250000E-02   4.40441119E-03   8.94821365E-04   1.65701956E-02
  0.953125000       1.56250000E-02   2.38554855E-03   1.11892214E-03   1.63923223E-02
  0.984375000       1.56250000E-02   6.32033625E-04   6.30568771E-04   1.63777191E-02
   1.56250000E-02   4.68750000E-02   9.71201807E-05  -4.80721646E-04   1.28599107E-02
   4.68750000E-02   4.68750000E-02  -2.45655974E-05  -3.44658474E-05   1.28205037E-02
   7.81250000E-02   4.68750000E-02  -8.97435762E-04   7.65434408E-04   1.27445860E-02
  0.109375000       4.68750000E-02  -2.63281958E-03   1.55091530E-03   1.26412874E-02
  0.140625000       4.68750000E-02  -5.20896260E-03   2.28988519E-03   1.25152860E-02
  0.171875000       4.68750000E-02  -8.62003490E-03   3.03966925E-03   1.23693421E-02
  0.203125000       4.68750000E-02  -1.28893005E-02   3.83689697E-03   1.22067500E-02
  0.234375000       4.68750000E-02  -1.80332959E-02   4.67324210E-03   1.20327147E-02
  0.265625000       4.68750000E-02  -2.40245163E-02   5.50616346E-03   1.18552838E-02
  0.296875000       4.68750000E-02  -3.07680126E-02   6.27357885E-03   1.16861546E-02
  0.328125000       4.68750000E-02  -3.80927026E-02   6.90382672E-03   1.15413312E-02
  0.359375000       4.68750000E-02  -4.57539409E-02   7.32199103E-03   1.14414198E-02
  0.390625000       4.68750000E-02  -5.34440540E-02   7.45513709E-03   1.14111789E-02
  0.421875000       4.68750000E-02  -6.08080849E-02   7.23768771E-03   1.14781000E-02
  0.453125000       4.68750000E-02  -6.74623102E-02   6.61680847E-03   1.16699580E-02
  0.484375000       4.68750000E-02  -7.30135441E-02   5.55712916E-03   1.20113846E-02
  0.515625000       4.68750000E-02  -7.70782828E-02   4.04442754E-03   1.25196660E-02
  0.546875000       4.68750000E-02  -7.93004930E-02   2.08840170E-03   1.32003622E-02
  0.578125000       4.68750000E-02  -7.93633014E-02  -2.73945159E-04   1.40440883E-02
  0.609375000       4.68750000E-02  -7.69711807E-02  -2.95771891E-03   1.49666490E-02
  0.640625000       4.68750000E-02  -7.19578862E-02  -5.88327879E-03   1.59090143E-02
  0.671875000       4.68750000E-02  -6.43820167E-02  -8.77554808E-03   1.67838410E-02
  0.703125000       4.68750000E-02  -5.45087047E-02  -1.12866769E-02   1.74956787E-02
  0.734375000       4.68750000E-02  -4.28432003E-02  -1.30153764E-02   1.79587118E-02
  0.765625000       4.68750000E-02  -3.01669221E-02  -1.35324448E-02   1.81211066E-02
  0.796875000       4.68750000E-02  -1.75608471E-02  -1.24494070E-02   1.79892574E-02
  0.828125000       4.68750000E-02  -6.37277495E-03  -9.56307538E-03   1.76396556E-02
  0.859375000       4.68750000E-02   1.88530493E-03  -5.20183751E-03   1.72064696E-02
  0.890625000       4.68750000E-02   6.03239331E-03  -6.49207446E-04   1.68040991E-02
  0.921875000       4.68750000E-02   6.19847421E-03   2.56632688E-03   1.65144932E-02
  0.953125000       4.68750000E-02   3.85527499E-03   3.79836303E-03   1.63650159E-02
  0.984375000       4.68750000E-02   1.14591094E-03   2.40522204E-03   1.63588133E-02
   1.56250000E-02   7.81250000E-02  -2.30463760E-04  -3.53437936E-04   1.29481135E-02
   4.68750000E-02   7.81250000E-02  -1.37069111E-03   1.08685589E-03   1.28906267E-02
   7.81250000E-02   7.81250000E-02  -3.84096382E-03   2.97290459E-03   1.28126033E-02
  0.109375000       7.81250000E-02  -7.55579583E-03   4.77972860E-03   1.27153415E-02
  0.140625000       7.81250000E-02  -1.24340700E-02   6.50223996E-03   1.25976503E-02
  0.171875000       7.81250000E-02  -1.84456632E-02   8.23764969E-03   1.24585479E-02
  0.203125000       7.81250000E-02  -2.55654752E-02   1.00167980E-02   1.22986492E-02
  0.234375000       7.81250000E-02  -3.37201208E-02   1.17821302E-02   1.21208541E-02
  0.265625000       7.81250000E-02  -4.27581817E-02   1.34181920E-02   1.19310655E-02
  0.296875000       7.81250000E-02  -5.24445921E-02   1.47846416E-02   1.17392018E-02
  0.328125000       7.81250000E-02  -6.24707676E-02   1.57382954E-02   1.15602789E-02
  0.359375000       7.81250000E-02  -7.24724829E-02   1.61464717E-02   1.14150103E-02
  0.390625000       7.81250000E-02  -8.20505321E-02   1.58958845E-02   1.13295391E-02
  0.421875000       7.81250000E-02  -9.07910764E-02   1.48993870E-02   1.13340151E-02
  0.453125000       7.81250000E-02  -9.82844681E-02   1.31010935E-02   1.14599019E-02
  0.484375000       7.81250000E-02 -0.104141630       1.04798470E-02   1.17362291E-02
  0.515625000       7.81250000E-02 -0.108008020       7.05141714E-03   1.21848918E-02
  0.546875000       7.81250000E-02 -0.109575897       2.86994153E-03   1.28154326E-02
  0.578125000       7.81250000E-02 -0.108600706      -1.96963572E-03   1.36177773E-02
  0.609375000       7.81250000E-02 -0.104892217      -7.36486772E-03   1.45086013E-02
  0.640625000       7.81250000E-02  -9.83904302E-02  -1.29939774E-02   1.54406773E-02
  0.671875000       7.81250000E-02  -8.92114788E-02  -1.84228979E-02   1.63245164E-02
  0.703125000       7.81250000E-02  -7.76119381E-02  -2.31159329E-02   1.70623623E-02
  0.734375000       7.81250000E-02  -6.40246868E-02  -2.64433362E-02   1.75647549E-02
  0.765625000       7.81250000E-02  -4.91051823E-02  -2.77057067E-02   1.77740604E-02
  0.796875000       7.81250000E-02  -3.37803736E-02  -2.62138844E-02   1.76890008E-02
  0.828125000       7.81250000E-02  -1.92856025E-02  -2.14901865E-02   1.73788443E-02
  0.859375000       7.81250000E-02  -7.13462569E-03  -1.36944829E-02   1.69709753E-02
  0.890625000       7.81250000E-02   1.01126754E-03  -4.46155481E-03   1.65925380E-02
  0.921875000       7.81250000E-02   4.13322635E-03   3.07823974E-03   1.63178071E-02
  0.953125000       7.81250000E-02   3.26447980E-03   6.48640189E-03   1.61818527E-02
  0.984375000       7.81250000E-02   1.06704165E-03   4.61451802E-03   1.61751807E-02
   1.56250000E-02  0.109375000      -6.80784229E-04   5.51782665E-04   1.30634774E-02
   4.68750000E-02  0.109375000      -3.13437264E-03   3.76206543E-03   1.29791293E-02
   7.81250000E-02  0.109375000      -7.50285340E-03   7.12190568E-03   1.28916260E-02
  0.109375000      0.109375000      -1.33728329E-02   1.02015538E-02   1.27913663E-02
  0.140625000      0.109375000      -2.05438547E-02   1.31166615E-02   1.26698595E-02
  0.171875000      0.109375000      -2.89220512E-02   1.60012469E-02   1.25212334E-02
  0.203125000      0.109375000      -3.84060815E-02   1.88468359E-02   1.23424856E-02
  0.234375000      0.109375000      -4.88274358E-02   2.15196274E-02   1.21336831E-02
  0.265625000      0.109375000      -5.99377975E-02   2.38224845E-02   1.18987290E-02
  0.296875000      0.109375000      -7.14209676E-02   2.55450998E-02   1.16466880E-02
  0.328125000      0.109375000      -8.29132497E-02   2.64930744E-02   1.13931689E-02
  0.359375000      0.109375000      -9.40246210E-02   2.65029445E-02   1.11610480E-02
  0.390625000      0.109375000     -0.104358166       2.54502445E-02   1.09800817E-02
  0.421875000      0.109375000     -0.113526829       2.32542790E-02   1.08851288E-02
  0.453125000      0.109375000     -0.121167317       1.98806189E-02   1.09129893E-02
  0.484375000      0.109375000     -0.126951039       1.53419431E-02   1.10981688E-02
  0.515625000      0.109375000     -0.130592018       9.69741959E-03   1.14677362E-02
  0.546875000      0.109375000     -0.131850511       3.05098156E-03   1.20365266E-02
  0.578125000      0.109375000     -0.130526274      -4.44993842E-03   1.27808461E-02
  0.609375000      0.109375000     -0.126508042      -1.26119349E-02   1.36560053E-02
  0.640625000      0.109375000     -0.119774342      -2.09836513E-02   1.46003561E-02
  0.671875000      0.109375000     -0.110369086      -2.90192850E-02   1.55275092E-02
  0.703125000      0.109375000      -9.84458029E-02  -3.60448733E-02   1.63382944E-02
  0.734375000      0.109375000      -8.42990428E-02  -4.12516929E-02   1.69374309E-02
  0.765625000      0.109375000      -6.84088990E-02  -4.37112600E-02   1.72559246E-02
  0.796875000      0.109375000      -5.14997654E-02  -4.24478874E-02   1.72754638E-02
  0.828125000      0.109375000      -3.46134156E-02  -3.66446637E-02   1.70455147E-02
  0.859375000      0.109375000      -1.91863663E-02  -2.61273701E-02   1.66784711E-02
  0.890625000      0.109375000      -7.05728307E-03  -1.23146158E-02   1.63086765E-02
  0.921875000      0.109375000      -2.50441954E-05   7.65429460E-04   1.60242766E-02
  0.953125000      0.109375000       1.76104810E-03   7.87034910E-03   1.58670470E-02
  0.984375000      0.109375000       7.50920619E-04   6.42878748E-03   1.58360694E-02
   1.56250000E-02  0.140625000      -1.17685215E-03   2.40363576E-03   1.31712947E-02
   4.68750000E-02  0.140625000      -5.01598790E-03   8.18983372E-03   1.30567048E-02
   7.81250000E-02  0.140625000      -1.12763597E-02   1.33085977E-02   1.29539212E-02
  0.109375000      0.140625000      -1.91642046E-02   1.77590512E-02   1.28399218E-02
  0.140625000      0.140625000      -2.83388589E-02   2.18924247E-02   1.26983412E-02
  0.171875000      0.140625000      -3.86342257E-02   2.58882437E-02   1.25182588E-02
  0.203125000      0.140625000      -4.98853810E-02   2.96861157E-02   1.22930603E-02
  0.234375000      0.140625000      -6.18661828E-02   3.30756046E-02   1.20203113E-02
  0.265625000      0.140625000      -7.42871016E-02   3.57929245E-02   1.17028030E-02
  0.296875000      0.140625000      -8.68138373E-02   3.75816077E-02   1.13501558E-02
  0.328125000      0.140625000      -9.90883410E-02   3.82220373E-02   1.09803118E-02
  0.359375000      0.140625000     -0.110746995       3.75440605E-02   1.06200725E-02
  0.390625000      0.140625000     -0.121435158       3.54319662E-02   1.03043215E-02
  0.421875000      0.140625000     -0.130818203       3.18262205E-02   1.00736618E-02
  0.453125000      0.140625000     -0.138589680       2.67230608E-02   9.97076929E-03
  0.484375000      0.140625000     -0.144476637       2.01727767E-02   1.00355111E-02
  0.515625000      0.140625000     -0.148242891       1.22763552E-02   1.02992589E-02
  0.546875000      0.140625000     -0.149690568       3.18061467E-03   1.07792299E-02
  0.578125000      0.140625000     -0.148662657      -6.93008490E-03   1.14616156E-02
  0.609375000      0.140625000     -0.145043194      -1.77688543E-02   1.23159727E-02
  0.640625000      0.140625000     -0.138753459      -2.88502276E-02   1.32836048E-02
  0.671875000      0.140625000     -0.129765406      -3.95468101E-02   1.42812058E-02
  0.703125000      0.140625000     -0.118128717      -4.90788594E-02   1.52091254E-02
  0.734375000      0.140625000     -0.103999265      -5.64962327E-02   1.59654282E-02
  0.765625000      0.140625000      -8.76821056E-02  -6.06771857E-02   1.64659228E-02
  0.796875000      0.140625000      -6.96973801E-02  -6.03800565E-02   1.66674145E-02
  0.828125000      0.140625000      -5.08789383E-02  -5.44228628E-02   1.65876187E-02
  0.859375000      0.140625000      -3.25166099E-02  -4.21457663E-02   1.63101889E-02
  0.890625000      0.140625000      -1.65138543E-02  -2.44369358E-02   1.59605276E-02
  0.921875000      0.140625000      -5.24285622E-03  -5.42549463E-03   1.56496353E-02
  0.953125000      0.140625000      -1.72546657E-04   7.19439425E-03   1.54404361E-02
  0.984375000      0.140625000       3.78652127E-04   7.55464844E-03   1.53629500E-02
   1.56250000E-02  0.171875000      -1.65311922E-03   5.22827683E-03   1.32279545E-02
   4.68750000E-02  0.171875000      -6.77125622E-03   1.43100861E-02   1.30837038E-02
   7.81250000E-02  0.171875000      -1.46947000E-02   2.13584248E-02   1.29604954E-02
  0.109375000      0.171875000      -2.42693424E-02   2.71589477E-02   1.28208539E-02
  0.140625000      0.171875000      -3.50270085E-02   3.24135348E-02   1.26409102E-02
  0.171875000      0.171875000      -4.67437059E-02   3.73697169E-02   1.24052884E-02
  0.203125000      0.171875000      -5.92188239E-02   4.19234894E-02   1.21044023E-02
  0.234375000      0.171875000      -7.22081065E-02   4.58030179E-02   1.17341904E-02
  0.265625000      0.171875000      -8.54234695E-02   4.86985818E-02   1.12974895E-02
  0.296875000      0.171875000      -9.85505879E-02   5.03284857E-02   1.08057726E-02
  0.328125000      0.171875000     -0.111266315       5.04656956E-02   1.02805607E-02
  0.359375000      0.171875000     -0.123251885       4.89462614E-02   9.75355413E-03
  0.390625000      0.171875000     -0.134201914       4.56706807E-02   9.26539674E-03
  0.421875000      0.171875000     -0.143830329       4.06024829E-02   8.86277761E-03
  0.453125000      0.171875000     -0.151873529       3.37654762E-02   8.59436579E-03
  0.484375000      0.171875000     -0.158092350       2.52403095E-02   8.50535650E-03
  0.515625000      0.171875000     -0.162273496       1.51602961E-02   8.63154419E-03
  0.546875000      0.171875000     -0.164232373       3.70699214E-03   8.99306592E-03
  0.578125000      0.171875000     -0.163818553      -8.89534689E-03   9.59174335E-03
  0.609375000      0.171875000     -0.160900742      -2.23391280E-02   1.04133002E-02
  0.640625000      0.171875000     -0.155359745      -3.61097343E-02   1.14065632E-02
  0.671875000      0.171875000     -0.147107646      -4.95273620E-02   1.24937482E-02
  0.703125000      0.171875000     -0.136102006      -6.17413074E-02   1.35764275E-02
  0.734375000      0.171875000     -0.122367226      -7.16994330E-02   1.45464437E-02
  0.765625000      0.171875000     -0.106035531      -7.81249702E-02   1.53023433E-02
  0.796875000      0.171875000      -8.74190181E-02  -7.95363560E-02   1.57703683E-02
  0.828125000      0.171875000      -6.71282411E-02  -7.43795037E-02   1.59262717E-02
  0.859375000      0.171875000      -4.62599844E-02  -6.14245459E-02   1.58102233E-02
  0.890625000      0.171875000      -2.66681612E-02  -4.07588929E-02   1.55226979E-02
  0.921875000      0.171875000      -1.11430343E-02  -1.59072708E-02   1.51882712E-02
  0.953125000      0.171875000      -2.40905769E-03   3.86304175E-03   1.49048064E-02
  0.984375000      0.171875000      -6.11168798E-06   7.92356487E-03   1.47607112E-02
   1.56250000E-02  0.203125000      -2.05265917E-03   8.92931968E-03   1.31863412E-02
   4.68750000E-02  0.203125000      -8.21231678E-03   2.18755510E-02   1.30154630E-02
   7.81250000E-02  0.203125000      -1.74391996E-02   3.09306681E-02   1.28670987E-02
  0.109375000      0.203125000      -2.82820761E-02   3.79927643E-02   1.26900952E-02
  0.140625000      0.203125000      -4.01710421E-02   4.42164689E-02   1.24541596E-02
  0.171875000      0.203125000      -5.28433360E-02   4.99478132E-02   1.21403486E-02
  0.203125000      0.203125000      -6.60866499E-02   5.50579578E-02   1.17369443E-02
  0.234375000      0.203125000      -7.96648785E-02   5.92323318E-02   1.12391785E-02
  0.265625000      0.203125000      -9.33142453E-02   6.21323101E-02   1.06508238E-02
  0.296875000      0.203125000     -0.106756419       6.34641945E-02   9.98602901E-03
  0.328125000      0.203125000     -0.119710833       6.30018711E-02   9.27042682E-03
  0.359375000      0.203125000     -0.131902948       6.05908148E-02   8.54096375E-03
  0.390625000      0.203125000     -0.143068731       5.61460927E-02   7.84421153E-03
  0.421875000      0.203125000     -0.152956903       4.96485606E-02   7.23312330E-03
  0.453125000      0.203125000     -0.161329865       4.11409810E-02   6.76263263E-03
  0.484375000      0.203125000     -0.167965144       3.07244547E-02   6.48396090E-03
  0.515625000      0.203125000     -0.172658235       1.85557734E-02   6.43841363E-03
  0.546875000      0.203125000     -0.175228417       4.84548602E-03   6.65068207E-03
  0.578125000      0.203125000     -0.175528318      -1.01438863E-02   7.13611022E-03
  0.609375000      0.203125000     -0.173427820      -2.61061639E-02   7.90592656E-03
  0.640625000      0.203125000     -0.168794364      -4.25153673E-02   8.91827233E-03
  0.671875000      0.203125000     -0.161497384      -5.86699173E-02   1.01031093E-02
  0.703125000      0.203125000     -0.151414141      -7.36876130E-02   1.13655943E-02
  0.734375000      0.203125000     -0.138443977      -8.64587873E-02   1.25931986E-02
  0.765625000      0.203125000     -0.122547142      -9.55954269E-02   1.36676114E-02
  0.796875000      0.203125000     -0.103821665      -9.94096398E-02   1.44820586E-02
  0.828125000      0.203125000      -8.26366916E-02  -9.59841534E-02   1.49633400E-02
  0.859375000      0.203125000      -5.98526634E-02  -8.34749117E-02   1.50950495E-02
  0.890625000      0.203125000      -3.71696874E-02  -6.09869175E-02   1.49343926E-02
  0.921875000      0.203125000      -1.75615046E-02  -3.08174491E-02   1.46055855E-02
  0.953125000      0.203125000      -4.87903785E-03  -2.64981808E-03   1.42533816E-02
  0.984375000      0.203125000      -3.83384235E-04   7.53067946E-03   1.40163926E-02
   1.56250000E-02  0.234375000      -2.33396771E-03   1.33118527E-02   1.30026788E-02
   4.68750000E-02  0.234375000      -9.21651442E-03   3.05252336E-02   1.28097823E-02
   7.81250000E-02  0.234375000      -1.93266924E-02   4.16068360E-02   1.26323886E-02
  0.109375000      0.234375000      -3.09962556E-02   4.98191193E-02   1.24079483E-02
  0.140625000      0.234375000      -4.35778201E-02   5.68523556E-02   1.21011892E-02
  0.171875000      0.234375000      -5.67840338E-02   6.31840676E-02   1.16905048E-02
  0.203125000      0.234375000      -7.04053938E-02   6.86820894E-02   1.11627374E-02
  0.234375000      0.234375000      -8.42267275E-02   7.30055571E-02   1.05130011E-02
  0.265625000      0.234375000      -9.80167836E-02   7.57982656E-02   9.74649191E-03
  0.296875000      0.234375000     -0.111535504       7.67606795E-02   8.88030324E-03
  0.328125000      0.234375000     -0.124541610       7.56690055E-02   7.94427935E-03
  0.359375000      0.234375000     -0.136796921       7.23754913E-02   6.98065571E-03
  0.390625000      0.234375000     -0.148068219       6.68039843E-02   6.04202226E-03
  0.421875000      0.234375000     -0.158128291       5.89451417E-02   5.18796220E-03
  0.453125000      0.234375000     -0.166757196       4.88529503E-02   4.48036706E-03
  0.484375000      0.234375000     -0.173745304       3.66426259E-02   3.97769082E-03
  0.515625000      0.234375000     -0.178898573       2.24904902E-02   3.72837624E-03
  0.546875000      0.234375000     -0.182046577       6.63480721E-03   3.76389688E-03
  0.578125000      0.234375000     -0.183053017      -1.06221186E-02   4.10596980E-03
  0.609375000      0.234375000     -0.181807876      -2.89699100E-02   4.80087753E-03
  0.640625000      0.234375000     -0.178188995      -4.79013994E-02   5.81696071E-03
  0.671875000      0.234375000     -0.172039241      -6.67290762E-02   7.09390966E-03
  0.703125000      0.234375000     -0.163167268      -8.45831335E-02   8.54327809E-03
  0.734375000      0.234375000     -0.151355088     -0.100345865       1.00516323E-02
  0.765625000      0.234375000     -0.136393219     -0.112567805       1.14870910E-02
  0.796875000      0.234375000     -0.118159980     -0.119397059       1.27114989E-02
  0.828125000      0.234375000      -9.67655480E-02 -0.118577316       1.36001613E-02
  0.859375000      0.234375000      -7.27942809E-02 -0.107638262       1.40704643E-02
  0.890625000      0.234375000      -4.77027446E-02  -8.45996514E-02   1.41173732E-02
  0.921875000      0.234375000      -2.44296975E-02  -5.00885062E-02   1.38412733E-02
  0.953125000      0.234375000      -7.72259617E-03  -1.27726477E-02   1.34248417E-02
  0.984375000      0.234375000      -8.57364328E-04   6.28690561E-03   1.30862119E-02
   1.56250000E-02  0.265625000      -2.47375551E-03   1.81160830E-02   1.26434956E-02
   4.68750000E-02  0.265625000      -9.72272921E-03   3.98438647E-02   1.24342265E-02
   7.81250000E-02  0.265625000      -2.02808026E-02   5.29467762E-02   1.22253243E-02
  0.109375000      0.265625000      -3.23444828E-02   6.22041300E-02   1.19460411E-02
  0.140625000      0.265625000      -4.52064201E-02   6.99041933E-02   1.15576964E-02
  0.171875000      0.265625000      -5.85615560E-02   7.66888410E-02   1.10367574E-02
  0.203125000      0.265625000      -7.22091049E-02   8.24435204E-02   1.03690326E-02
  0.234375000      0.265625000      -8.59583765E-02   8.68140310E-02   9.54978913E-03
  0.265625000      0.265625000      -9.96103436E-02   8.94330069E-02   8.58572777E-03
  0.296875000      0.265625000     -0.112959266       8.99965316E-02   7.49681704E-03
  0.328125000      0.265625000     -0.125796378       8.82808194E-02   6.31706184E-03
  0.359375000      0.265625000     -0.137911990       8.41403157E-02   5.09395124E-03
  0.390625000      0.265625000     -0.149096832       7.75020570E-02   3.88634810E-03
  0.421875000      0.265625000     -0.159143746       6.83615655E-02   2.76098633E-03
  0.453125000      0.265625000     -0.167851210       5.67807518E-02   1.78762991E-03
  0.484375000      0.265625000     -0.175028503       4.28880751E-02   1.03318156E-03
  0.515625000      0.265625000     -0.180502594       2.68799681E-02   5.54766331E-04
  0.546875000      0.265625000     -0.184125066       9.02258232E-03   3.92846297E-04
  0.578125000      0.265625000     -0.185776502      -1.03464704E-02   5.68460731E-04
  0.609375000      0.265625000     -0.185382515      -3.08802463E-02   1.16444577E-03
  0.640625000      0.265625000     -0.182853758      -5.21353558E-02   2.16159108E-03
  0.671875000      0.265625000     -0.178021073      -7.34754130E-02   3.51082650E-03
  0.703125000      0.265625000     -0.170639038      -9.40898061E-02   5.13318554E-03
  0.734375000      0.265625000     -0.160383105     -0.112907186       6.91916049E-03
  0.765625000      0.265625000     -0.146878868     -0.128473088       8.72947834E-03
  0.796875000      0.265625000     -0.129781261     -0.138823435       1.04005523E-02
  0.828125000      0.265625000     -0.108925804     -0.141401559       1.17589552E-02
  0.859375000      0.265625000      -8.45872387E-02 -0.133124292       1.26513774E-02
  0.890625000      0.265625000      -5.79111688E-02 -0.110881522       1.29945595E-02
  0.921875000      0.265625000      -3.16354372E-02  -7.33562410E-02   1.28386132E-02
  0.953125000      0.265625000      -1.09875724E-02  -2.68621631E-02   1.23903845E-02
  0.984375000      0.265625000      -1.45377498E-03   3.97321442E-03   1.19384471E-02
   1.56250000E-02  0.296875000      -2.46565905E-03   2.30525248E-02   1.20907947E-02
   4.68750000E-02  0.296875000      -9.72043443E-03   4.94037606E-02   1.18713966E-02
   7.81250000E-02  0.296875000      -2.03031190E-02   6.45194799E-02   1.16302241E-02
  0.109375000      0.296875000      -3.23525071E-02   7.47378021E-02   1.12918690E-02
  0.140625000      0.296875000      -4.51123342E-02   8.29872414E-02   1.08157434E-02
  0.171875000      0.296875000      -5.82606122E-02   9.01060551E-02   1.01769855E-02
  0.203125000      0.296875000      -7.16052353E-02   9.60173011E-02   9.36059281E-03
  0.234375000      0.296875000      -8.49784464E-02  0.100363471       8.36196449E-03
  0.265625000      0.296875000      -9.82096642E-02  0.102769360       7.18917279E-03
  0.296875000      0.296875000     -0.111121975      0.102925703       5.86487539E-03
  0.328125000      0.296875000     -0.123533070      0.100605592       4.42714151E-03
  0.359375000      0.296875000     -0.135256663       9.56617296E-02   2.92875292E-03
  0.390625000      0.296875000     -0.146104604       8.80213976E-02   1.43517985E-03
  0.421875000      0.296875000     -0.155890644       7.76838511E-02   2.08501187E-05
  0.453125000      0.296875000     -0.164436221       6.47204518E-02  -1.23580534E-03
  0.484375000      0.296875000     -0.171577945       4.92763035E-02  -2.25865887E-03
  0.515625000      0.296875000     -0.177175358       3.15717570E-02  -2.98112328E-03
  0.546875000      0.296875000     -0.181116670       1.19023286E-02  -3.35354777E-03
  0.578125000      0.296875000     -0.183321089      -9.36404057E-03  -3.35028186E-03
  0.609375000      0.296875000     -0.183751941      -3.18206809E-02  -2.87617161E-03
  0.640625000      0.296875000     -0.182354033      -5.51173910E-02  -1.92521943E-03
  0.671875000      0.296875000     -0.178970858      -7.87063465E-02  -5.35857573E-04
  0.703125000      0.296875000     -0.173323870     -0.101886354       1.22484704E-03
  0.734375000      0.296875000     -0.164997742     -0.123692252       3.25696706E-03
  0.765625000      0.296875000     -0.153461486     -0.142728865       5.42232255E-03
  0.796875000      0.296875000     -0.138145417     -0.156982064       7.54185207E-03
  0.828125000      0.296875000     -0.118596762     -0.163647652       9.40186158E-03
  0.859375000      0.296875000      -9.47500989E-02 -0.159063667       1.07800737E-02
  0.890625000      0.296875000      -6.73835054E-02 -0.138984576       1.15039889E-02
  0.921875000      0.296875000      -3.89095247E-02 -0.100002669       1.15461498E-02
  0.953125000      0.296875000      -1.46640213E-02  -4.51098457E-02   1.11089852E-02
  0.984375000      0.296875000      -2.24854797E-03   2.69001815E-04   1.05467997E-02
   1.56250000E-02  0.328125000      -2.31721695E-03   2.78328545E-02   1.13444924E-02
   4.68750000E-02  0.328125000      -9.23795719E-03   5.87926582E-02   1.11214435E-02
   7.81250000E-02  0.328125000      -1.94512308E-02   7.59198368E-02   1.08490307E-02
  0.109375000      0.328125000      -3.11107449E-02   8.70411843E-02   1.04506612E-02
  0.140625000      0.328125000      -4.34183367E-02   9.57477689E-02   9.88524314E-03
  0.171875000      0.328125000      -5.60318194E-02  0.103105634       9.12709534E-03
  0.203125000      0.328125000      -6.87643364E-02  0.109095134       8.16049986E-03
  0.234375000      0.328125000      -8.14674497E-02  0.113364100       6.98086806E-03
  0.265625000      0.328125000      -9.39949006E-02  0.115531340       5.59745869E-03
  0.296875000      0.328125000     -0.106194161      0.115280844       4.03544027E-03
  0.328125000      0.328125000     -0.117905691      0.112380043       2.33678590E-03
  0.359375000      0.328125000     -0.128964528      0.106677890       5.59725915E-04
  0.390625000      0.328125000     -0.139203832       9.81016010E-02  -1.22347020E-03
  0.421875000      0.328125000     -0.148460835       8.66563916E-02  -2.93019111E-03
  0.453125000      0.328125000     -0.156585068       7.24276900E-02  -4.47294023E-03
  0.484375000      0.328125000     -0.163447827       5.55834249E-02  -5.76604065E-03
  0.515625000      0.328125000     -0.168950438       3.63740399E-02  -6.73337281E-03
  0.546875000      0.328125000     -0.173028827       1.51284086E-02  -7.31627084E-03
  0.578125000      0.328125000     -0.175652906      -7.75443204E-03  -7.48115126E-03
  0.609375000      0.328125000     -0.176829338      -3.18169519E-02  -7.14297127E-03
  0.640625000      0.328125000     -0.176547468      -5.67956567E-02  -6.26455061E-03
  0.671875000      0.328125000     -0.174686790      -8.22681636E-02  -4.87489579E-03
  0.703125000      0.328125000     -0.170959964     -0.107696116      -3.02744261E-03
  0.734375000      0.328125000     -0.164881468     -0.132286251      -8.06995435E-04
  0.765625000      0.328125000     -0.155776978     -0.154775783       1.65926875E-03
  0.796875000      0.328125000     -0.142854646     -0.173174322       4.18999931E-03
  0.828125000      0.328125000     -0.125362247     -0.184497297       6.54481817E-03