 VARIABLES="X","Y","U","V","P"
 ZONE F=POINT, I=          64 , J=          64
   7.81250000E-03   7.81250000E-03   5.40658220E-05  -5.41857917E-05   2.42240746E-02
   2.34375000E-02   7.81250000E-03   2.74542603E-04  -1.66571961E-04   2.42391936E-02
   3.90625000E-02   7.81250000E-03   6.54989854E-04  -2.14199667E-04   2.42266320E-02
   5.46875000E-02   7.81250000E-03   1.07720611E-03  -2.08346435E-04   2.41771154E-02
   7.03125000E-02   7.81250000E-03   1.45522458E-03  -1.70002852E-04   2.40912884E-02
   8.59375000E-02   7.81250000E-03   1.74065400E-03  -1.15751296E-04   2.39737127E-02
  0.101562500       7.81250000E-03   1.91224064E-03  -5.61585184E-05   2.38296110E-02
  0.117187500       7.81250000E-03   1.96498609E-03   3.09061943E-06   2.36632898E-02
  0.132812500       7.81250000E-03   1.90182030E-03   5.97567923E-05   2.34777145E-02
  0.148437500       7.81250000E-03   1.72851095E-03   1.13239083E-04   2.32745260E-02
  0.164062500       7.81250000E-03   1.44975726E-03   1.65207457E-04   2.30541248E-02
  0.179687500       7.81250000E-03   1.06767635E-03   2.16572196E-04   2.28164326E-02
  0.195312500       7.81250000E-03   5.80948777E-04   2.69857381E-04   2.25609336E-02
  0.210937500       7.81250000E-03  -1.48830004E-05   3.25678702E-04   2.22879555E-02
  0.226562500       7.81250000E-03  -7.25334219E-04   3.84481013E-04   2.19977628E-02
  0.242187500       7.81250000E-03  -1.55680196E-03   4.46698745E-04   2.16919594E-02
  0.257812500       7.81250000E-03  -2.51565524E-03   5.11868217E-04   2.13728528E-02
  0.273437500       7.81250000E-03  -3.60685913E-03   5.79055399E-04   2.10438408E-02
  0.289062500       7.81250000E-03  -4.83318884E-03   6.46999804E-04   2.07094625E-02
  0.304687500       7.81250000E-03  -6.19466975E-03   7.14207417E-04   2.03754306E-02
  0.320312500       7.81250000E-03  -7.68814795E-03   7.78999238E-04   2.00486109E-02
  0.335937500       7.81250000E-03  -9.30695608E-03   8.39547603E-04   1.97370015E-02
  0.351562500       7.81250000E-03  -1.10406615E-02   8.93905584E-04   1.94496457E-02
  0.367187500       7.81250000E-03  -1.28748715E-02   9.40060650E-04   1.91964880E-02
  0.382812500       7.81250000E-03  -1.47911403E-02   9.75971285E-04   1.89881939E-02
  0.398437500       7.81250000E-03  -1.67669542E-02   9.99611337E-04   1.88358799E-02
  0.414062500       7.81250000E-03  -1.87758133E-02   1.00901863E-03   1.87508129E-02
  0.429687500       7.81250000E-03  -2.07873993E-02   1.00233662E-03   1.87440403E-02
  0.445312500       7.81250000E-03  -2.27678288E-02   9.77866584E-04   1.88259725E-02
  0.460937500       7.81250000E-03  -2.46799961E-02   9.34079173E-04   1.90059226E-02
  0.476562500       7.81250000E-03  -2.64839567E-02   8.69662210E-04   1.92916095E-02
  0.492187500       7.81250000E-03  -2.81373467E-02   7.83515454E-04   1.96886212E-02
  0.507812500       7.81250000E-03  -2.95958631E-02   6.74779410E-04   2.01998688E-02
  0.523437500       7.81250000E-03  -3.08137983E-02   5.42925321E-04   2.08249446E-02
  0.539062500       7.81250000E-03  -3.17450091E-02   3.88047018E-04   2.15594508E-02
  0.554687500       7.81250000E-03  -3.23452018E-02   2.11898601E-04   2.23941803E-02
  0.570312500       7.81250000E-03  -3.25777121E-02   2.03535437E-05   2.33143251E-02
  0.585937500       7.81250000E-03  -3.24179530E-02  -1.80373361E-04   2.42921747E-02
  0.601562500       7.81250000E-03  -3.18342596E-02  -4.03587357E-04   2.53011286E-02
  0.617187500       7.81250000E-03  -3.07895392E-02  -6.41410297E-04   2.63166018E-02
  0.632812500       7.81250000E-03  -2.92642284E-02  -8.84186826E-04   2.73089483E-02
  0.648437500       7.81250000E-03  -2.72583328E-02  -1.12200214E-03   2.82457210E-02
  0.664062500       7.81250000E-03  -2.47922782E-02  -1.34435913E-03   2.90935151E-02
  0.679687500       7.81250000E-03  -2.19081603E-02  -1.54007017E-03   2.98199952E-02
  0.695312500       7.81250000E-03  -1.86709203E-02  -1.69748359E-03   3.03961504E-02
  0.710937500       7.81250000E-03  -1.51687283E-02  -1.80503225E-03   3.07987519E-02
  0.726562500       7.81250000E-03  -1.15119629E-02  -1.85206067E-03   3.10127325E-02
  0.742187500       7.81250000E-03  -7.83033390E-03  -1.82989216E-03   3.10332552E-02
  0.757812500       7.81250000E-03  -4.26798407E-03  -1.73277699E-03   3.08671463E-02
  0.773437500       7.81250000E-03  -9.77724441E-04  -1.55779335E-03   3.05333063E-02
  0.789062500       7.81250000E-03   1.88058033E-03  -1.30081421E-03   3.00671980E-02
  0.804687500       7.81250000E-03   4.17596428E-03  -9.94868926E-04   2.95110289E-02
  0.820312500       7.81250000E-03   5.84066659E-03  -6.70123263E-04   2.89065950E-02
  0.835937500       7.81250000E-03   6.86155260E-03  -3.51043971E-04   2.82952208E-02
  0.851562500       7.81250000E-03   7.27532804E-03  -6.30100403E-05   2.77138948E-02
  0.867187500       7.81250000E-03   7.16267014E-03   1.75396650E-04   2.71912515E-02
  0.882812500       7.81250000E-03   6.62774267E-03   3.59266181E-04   2.67462134E-02
  0.898437500       7.81250000E-03   5.77743910E-03   4.90774983E-04   2.63864398E-02
  0.914062500       7.81250000E-03   4.71299328E-03   5.73411176E-04   2.61135474E-02
  0.929687500       7.81250000E-03   3.53141339E-03   6.07913593E-04   2.59254444E-02
  0.945312500       7.81250000E-03   2.33501149E-03   5.88230265E-04   2.58177854E-02
  0.960937500       7.81250000E-03   1.24824583E-03   4.98276320E-04   2.57835388E-02
  0.976562500       7.81250000E-03   4.32873552E-04   3.16843274E-04   2.58086547E-02
  0.992187500       7.81250000E-03   5.79527041E-05   5.78727122E-05   2.58614663E-02
   7.81250000E-03   2.34375000E-02   1.67622231E-04  -2.76154577E-04   2.42089275E-02
   2.34375000E-02   2.34375000E-02   6.82280632E-04  -6.80385623E-04   2.42239349E-02
   3.90625000E-02   2.34375000E-02   1.43621233E-03  -8.35497864E-04   2.42081787E-02
   5.46875000E-02   2.34375000E-02   2.21714145E-03  -7.90930237E-04   2.41594352E-02
   7.03125000E-02   2.34375000E-02   2.86941277E-03  -6.18449063E-04   2.40789540E-02
   8.59375000E-02   2.34375000E-02   3.29309865E-03  -3.77153134E-04   2.39702016E-02
  0.101562500       2.34375000E-02   3.43264313E-03  -1.06618303E-04   2.38371715E-02
  0.117187500       2.34375000E-02   3.26280762E-03   1.69913983E-04   2.36832015E-02
  0.132812500       2.34375000E-02   2.77668331E-03   4.41506156E-04   2.35105753E-02
  0.148437500       2.34375000E-02   1.97705813E-03   7.03716476E-04   2.33206674E-02
  0.164062500       2.34375000E-02   8.67161783E-04   9.62689053E-04   2.31136158E-02
  0.179687500       2.34375000E-02  -5.52530750E-04   1.22018356E-03   2.28895508E-02
  0.195312500       2.34375000E-02  -2.28257105E-03   1.48233515E-03   2.26473883E-02
  0.210937500       2.34375000E-02  -4.32765251E-03   1.75344036E-03   2.23878436E-02
  0.226562500       2.34375000E-02  -6.69583771E-03   2.03469396E-03   2.21112669E-02
  0.242187500       2.34375000E-02  -9.39401239E-03   2.32547382E-03   2.18189005E-02
  0.257812500       2.34375000E-02  -1.24251675E-02   2.62245093E-03   2.15128455E-02
  0.273437500       2.34375000E-02  -1.57865863E-02   2.92045879E-03   2.11962033E-02
  0.289062500       2.34375000E-02  -1.94683373E-02   3.21304845E-03   2.08731573E-02
  0.304687500       2.34375000E-02  -2.34522223E-02   3.49290390E-03   2.05490366E-02
  0.320312500       2.34375000E-02  -2.77111977E-02   3.75214266E-03   2.02303138E-02
  0.335937500       2.34375000E-02  -3.22091505E-02   3.98256676E-03   1.99246053E-02
  0.351562500       2.34375000E-02  -3.69010046E-02   4.17586509E-03   1.96406078E-02
  0.367187500       2.34375000E-02  -4.17331085E-02   4.32385877E-03   1.93879567E-02
  0.382812500       2.34375000E-02  -4.66438830E-02   4.41868417E-03   1.91770643E-02
  0.398437500       2.34375000E-02  -5.15647121E-02   4.45300806E-03   1.90188643E-02
  0.414062500       2.34375000E-02  -5.64209446E-02   4.42018267E-03   1.89245064E-02
  0.429687500       2.34375000E-02  -6.11330941E-02   4.31439281E-03   1.89050101E-02
  0.445312500       2.34375000E-02  -6.56181425E-02   4.13077464E-03   1.89708136E-02
  0.460937500       2.34375000E-02  -6.97908178E-02   3.86551302E-03   1.91313569E-02
  0.476562500       2.34375000E-02  -7.35650212E-02   3.51589662E-03   1.93945449E-02
  0.492187500       2.34375000E-02  -7.68551975E-02   3.08035268E-03   1.97662450E-02
  0.507812500       2.34375000E-02  -7.95778334E-02   2.55858060E-03   2.02497356E-02
  0.523437500       2.34375000E-02  -8.16531777E-02   1.95188017E-03   2.08451264E-02
  0.539062500       2.34375000E-02  -8.30074847E-02   1.26407179E-03   2.15488467E-02
  0.554687500       2.34375000E-02  -8.35765600E-02   5.04589465E-04   2.23530792E-02
  0.570312500       2.34375000E-02  -8.33160430E-02  -3.00911983E-04   2.32434124E-02
  0.585937500       2.34375000E-02  -8.21616054E-02  -1.17387960E-03   2.41810381E-02
  0.601562500       2.34375000E-02  -8.00476074E-02  -2.10836437E-03   2.51526777E-02
  0.617187500       2.34375000E-02  -7.69538730E-02  -3.07570677E-03   2.61319838E-02
  0.632812500       2.34375000E-02  -7.28863627E-02  -4.04335419E-03   2.70896237E-02
  0.648437500       2.34375000E-02  -6.78788126E-02  -4.97694639E-03   2.79940031E-02
  0.664062500       2.34375000E-02  -6.19949922E-02  -5.83997928E-03   2.88127363E-02
  0.679687500       2.34375000E-02  -5.53304479E-02  -6.59381319E-03   2.95145810E-02
  0.695312500       2.34375000E-02  -4.80137430E-02  -7.19838776E-03   3.00716422E-02
  0.710937500       2.34375000E-02  -4.02070321E-02  -7.61374785E-03   3.04617807E-02
  0.726562500       2.34375000E-02  -3.21054794E-02  -7.80239375E-03   3.06709632E-02
  0.742187500       2.34375000E-02  -2.39349306E-02  -7.73246493E-03   3.06953080E-02
  0.757812500       2.34375000E-02  -1.59470309E-02  -7.38117192E-03   3.05424631E-02
  0.773437500       2.34375000E-02  -8.41039699E-03  -6.73699658E-03   3.02319508E-02
  0.789062500       2.34375000E-02  -1.59510586E-03  -5.79589652E-03   2.97940783E-02
  0.804687500       2.34375000E-02   4.20192722E-03  -4.59288154E-03   2.92822029E-02
  0.820312500       2.34375000E-02   8.73925537E-03  -3.27479886E-03   2.87274644E-02
  0.835937500       2.34375000E-02   1.19204689E-02  -1.94910157E-03   2.81662196E-02
  0.851562500       2.34375000E-02   1.37535129E-02  -7.12397858E-04   2.76338458E-02
  0.867187500       2.34375000E-02   1.43380724E-02   3.52271018E-04   2.71567777E-02
  0.882812500       2.34375000E-02   1.38544189E-02   1.20037433E-03   2.67510172E-02
  0.898437500       2.34375000E-02   1.25224618E-02   1.83133385E-03   2.64230669E-02
  0.914062500       2.34375000E-02   1.05682136E-02   2.25095986E-03   2.61732563E-02
  0.929687500       2.34375000E-02   8.22277553E-03   2.45680334E-03   2.59983279E-02
  0.945312500       2.34375000E-02   5.73184993E-03   2.42608879E-03   2.58929506E-02
  0.960937500       2.34375000E-02   3.37086804E-03   2.10758625E-03   2.58503258E-02
  0.976562500       2.34375000E-02   1.45513273E-03   1.43806404E-03   2.58614793E-02
  0.992187500       2.34375000E-02   3.25296103E-04   4.40927484E-04   2.59142071E-02
   7.81250000E-03   3.90625000E-02   2.18868809E-04  -6.62969891E-04   2.42215469E-02
   2.34375000E-02   3.90625000E-02   8.46498762E-04  -1.43659464E-03   2.42386851E-02
   3.90625000E-02   3.90625000E-02   1.69475214E-03  -1.68229372E-03   2.42214873E-02
   5.46875000E-02   3.90625000E-02   2.49360362E-03  -1.52473757E-03   2.41722800E-02
   7.03125000E-02   3.90625000E-02   3.05679115E-03  -1.10092293E-03   2.40940750E-02
   8.59375000E-02   3.90625000E-02   3.26089165E-03  -5.23279014E-04   2.39906479E-02
  0.101562500       3.90625000E-02   3.02822981E-03   1.31811204E-04   2.38656309E-02
  0.117187500       3.90625000E-02   2.31769076E-03   8.11048434E-04   2.37216409E-02
  0.132812500       3.90625000E-02   1.11221103E-03   1.49117550E-03   2.35603638E-02
  0.148437500       3.90625000E-02  -5.93106844E-04   2.15820153E-03   2.33831946E-02
  0.164062500       3.90625000E-02  -2.79318914E-03   2.81740911E-03   2.31886022E-02
  0.179687500       3.90625000E-02  -5.48397144E-03   3.47517198E-03   2.29768641E-02
  0.195312500       3.90625000E-02  -8.66689440E-03   4.13954258E-03   2.27471516E-02
  0.210937500       3.90625000E-02  -1.23431692E-02   4.81683109E-03   2.24992596E-02
  0.226562500       3.90625000E-02  -1.65110379E-02   5.50661283E-03   2.22333670E-02
  0.242187500       3.90625000E-02  -2.11631730E-02   6.20312523E-03   2.19503567E-02
  0.257812500       3.90625000E-02  -2.62837894E-02   6.89584250E-03   2.16519684E-02
  0.273437500       3.90625000E-02  -3.18467282E-02   7.57071655E-03   2.13409252E-02
  0.289062500       3.90625000E-02  -3.78142931E-02   8.21139663E-03   2.10210346E-02
  0.304687500       3.90625000E-02  -4.41367775E-02   8.80023278E-03   2.06972752E-02
  0.320312500       3.90625000E-02  -5.07527441E-02   9.31907631E-03   2.03758311E-02
  0.335937500       3.90625000E-02  -5.75897656E-02   9.74994432E-03   2.00640969E-02
  0.351562500       3.90625000E-02  -6.45656288E-02   1.00755580E-02   1.97706521E-02
  0.367187500       3.90625000E-02  -7.15898126E-02   1.02798278E-02   1.95051059E-02
  0.382812500       3.90625000E-02  -7.85651952E-02   1.03482697E-02   1.92779768E-02
  0.398437500       3.90625000E-02  -8.53898823E-02   1.02683399E-02   1.91003811E-02
  0.414062500       3.90625000E-02  -9.19590592E-02   1.00296661E-02   1.89837776E-02
  0.429687500       3.90625000E-02  -9.81668234E-02   9.62424837E-03   1.89395547E-02
  0.445312500       3.90625000E-02 -0.103907943       9.04652290E-03   1.89786237E-02
  0.460937500       3.90625000E-02 -0.109079540       8.29348154E-03   1.91109255E-02
  0.476562500       3.90625000E-02 -0.113582611       7.36465259E-03   1.93449277E-02
  0.492187500       3.90625000E-02 -0.117323563       6.26216084E-03   1.96871106E-02
  0.507812500       3.90625000E-02 -0.120215707       4.99096699E-03   2.01414414E-02
  0.523437500       3.90625000E-02 -0.122180812       3.55935702E-03   2.07088739E-02
  0.539062500       3.90625000E-02 -0.123150453       1.97994942E-03   2.13871934E-02
  0.554687500       3.90625000E-02 -0.123064362       2.71091645E-04   2.21717786E-02
  0.570312500       3.90625000E-02 -0.121851459      -1.54144631E-03   2.30247565E-02
  0.585937500       3.90625000E-02 -0.119459480      -3.48039065E-03   2.39368081E-02
  0.601562500       3.90625000E-02 -0.115878470      -5.49752358E-03   2.48862244E-02
  0.617187500       3.90625000E-02 -0.111119807      -7.53963133E-03   2.58468147E-02
  0.632812500       3.90625000E-02 -0.105218291      -9.54916142E-03   2.67892163E-02
  0.648437500       3.90625000E-02  -9.82330218E-02  -1.14646982E-02   2.76819058E-02
  0.664062500       3.90625000E-02  -9.02490318E-02  -1.32207964E-02   2.84926072E-02
  0.679687500       3.90625000E-02  -8.13791156E-02  -1.47482175E-02   2.91901678E-02
  0.695312500       3.90625000E-02  -7.17655867E-02  -1.59750022E-02   2.97467094E-02
  0.710937500       3.90625000E-02  -6.15816414E-02  -1.68285742E-02   3.01400218E-02
  0.726562500       3.90625000E-02  -5.10323495E-02  -1.72392055E-02   3.03559266E-02
  0.742187500       3.90625000E-02  -4.03544754E-02  -1.71448700E-02   3.03904228E-02
  0.757812500       3.90625000E-02  -2.98145078E-02  -1.64974257E-02   3.02511230E-02
  0.773437500       3.90625000E-02  -1.97032895E-02  -1.52693726E-02   2.99578384E-02
  0.789062500       3.90625000E-02  -1.03242006E-02  -1.34586571E-02   2.95417905E-02
  0.804687500       3.90625000E-02  -1.96600077E-03  -1.10861035E-02   2.90435553E-02
  0.820312500       3.90625000E-02   5.03082713E-03  -8.31646472E-03   2.85187289E-02
  0.835937500       3.90625000E-02   1.03738206E-02  -5.43233845E-03   2.79889517E-02
  0.851562500       3.90625000E-02   1.39651708E-02  -2.65424186E-03   2.74880789E-02
  0.867187500       3.90625000E-02   1.58441197E-02  -1.70069965E-04   2.70441063E-02
  0.882812500       3.90625000E-02   1.61710866E-02   1.87873549E-03   2.66718436E-02
  0.898437500       3.90625000E-02   1.52061777E-02   3.44917364E-03   2.63740309E-02
  0.914062500       3.90625000E-02   1.32503379E-02   4.54255287E-03   2.61489376E-02
  0.929687500       3.90625000E-02   1.06153041E-02   5.14503848E-03   2.59915926E-02
  0.945312500       3.90625000E-02   7.63244741E-03   5.21099661E-03   2.58957781E-02
  0.960937500       3.90625000E-02   4.66487370E-03   4.65059374E-03   2.58559138E-02
  0.976562500       3.90625000E-02   2.12499360E-03   3.35001992E-03   2.58686431E-02
  0.992187500       3.90625000E-02   5.08623489E-04   1.27462076E-03   2.59350426E-02
   7.81250000E-03   5.46875000E-02   2.14972388E-04  -1.09713827E-03   2.42728032E-02
   2.34375000E-02   5.46875000E-02   7.97377317E-04  -2.21319776E-03   2.42867488E-02
   3.90625000E-02   5.46875000E-02   1.50699122E-03  -2.46437988E-03   2.42655016E-02
   5.46875000E-02   5.46875000E-02   2.04821280E-03  -2.08355277E-03   2.42133718E-02
   7.03125000E-02   5.46875000E-02   2.22347956E-03  -1.28137972E-03   2.41347142E-02
   8.59375000E-02   5.46875000E-02   1.89955812E-03  -2.23807874E-04   2.40339618E-02
  0.101562500       5.46875000E-02   9.90045373E-04   9.73702932E-04   2.39138752E-02
  0.117187500       5.46875000E-02  -5.51159028E-04   2.22008652E-03   2.37779580E-02
  0.132812500       5.46875000E-02  -2.73803202E-03   3.47369374E-03   2.36262716E-02
  0.148437500       5.46875000E-02  -5.57162613E-03   4.71380726E-03   2.34590732E-02
  0.164062500       5.46875000E-02  -9.05074924E-03   5.94022265E-03   2.32751649E-02
  0.179687500       5.46875000E-02  -1.31706540E-02   7.16227014E-03   2.30734758E-02
  0.195312500       5.46875000E-02  -1.79230832E-02   8.38702545E-03   2.28527635E-02
  0.210937500       5.46875000E-02  -2.32943147E-02   9.61608998E-03   2.26121396E-02
  0.226562500       5.46875000E-02  -2.92621590E-02   1.08423121E-02   2.23512352E-02
  0.242187500       5.46875000E-02  -3.57937217E-02   1.20503744E-02   2.20704246E-02
  0.257812500       5.46875000E-02  -4.28436734E-02   1.32184327E-02   2.17709802E-02
  0.273437500       5.46875000E-02  -5.03535420E-02   1.43202180E-02   2.14552246E-02
  0.289062500       5.46875000E-02  -5.82518391E-02   1.53270438E-02   2.11266577E-02
  0.304687500       5.46875000E-02  -6.64549768E-02   1.62095167E-02   2.07900442E-02
  0.320312500       5.46875000E-02  -7.48687536E-02   1.69388708E-02   2.04514973E-02
  0.335937500       5.46875000E-02  -8.33902657E-02   1.74880456E-02   2.01184861E-02
  0.351562500       5.46875000E-02  -9.19100791E-02   1.78324878E-02   1.97998025E-02
  0.367187500       5.46875000E-02 -0.100314386       1.79507695E-02   1.95054356E-02
  0.382812500       5.46875000E-02 -0.108487368       1.78250838E-02   1.92463771E-02
  0.398437500       5.46875000E-02 -0.116313219       1.74414776E-02   1.90343447E-02
  0.414062500       5.46875000E-02 -0.123678148       1.67900603E-02   1.88814774E-02
  0.429687500       5.46875000E-02 -0.130472153       1.58650316E-02   1.87998805E-02
  0.445312500       5.46875000E-02 -0.136590436       1.46645894E-02   1.88012123E-02
  0.460937500       5.46875000E-02 -0.141934797       1.31908255E-02   1.88961532E-02
  0.476562500       5.46875000E-02 -0.146414563       1.14495866E-02   1.90938879E-02
  0.492187500       5.46875000E-02 -0.149947345       9.45040025E-03   1.94016173E-02
  0.507812500       5.46875000E-02 -0.152459592       7.20655266E-03   1.98240038E-02
  0.523437500       5.46875000E-02 -0.153886765       4.73547401E-03   2.03627124E-02
  0.539062500       5.46875000E-02 -0.154173702       2.05982430E-03   2.10158285E-02
  0.554687500       5.46875000E-02 -0.153278828      -7.90352584E-04   2.17760634E-02
  0.570312500       5.46875000E-02 -0.151154101      -3.81823815E-03   2.26012748E-02
  0.585937500       5.46875000E-02 -0.147774756      -6.97553717E-03   2.34944001E-02
  0.601562500       5.46875000E-02 -0.143160850      -1.01979468E-02   2.44311187E-02
  0.617187500       5.46875000E-02 -0.137345046      -1.34143643E-02   2.53846310E-02
  0.632812500       5.46875000E-02 -0.130373895      -1.65477656E-02   2.63252892E-02
  0.648437500       5.46875000E-02 -0.122310862      -1.95151120E-02   2.72213891E-02
  0.664062500       5.46875000E-02 -0.113238849      -2.22271346E-02   2.80404389E-02
  0.679687500       5.46875000E-02 -0.103262767      -2.45886222E-02   2.87509561E-02
  0.695312500       5.46875000E-02  -9.25121456E-02  -2.64995322E-02   2.93245502E-02
  0.710937500       5.46875000E-02  -8.11435133E-02  -2.78574042E-02   2.97382884E-02
  0.726562500       5.46875000E-02  -6.93425983E-02  -2.85613462E-02   2.99770758E-02
  0.742187500       5.46875000E-02  -5.73259480E-02  -2.85180211E-02   3.00358627E-02
  0.757812500       5.46875000E-02  -4.53410745E-02  -2.76498906E-02   2.99212411E-02
  0.773437500       5.46875000E-02  -3.36643010E-02  -2.59056687E-02   2.96522081E-02
  0.789062500       5.46875000E-02  -2.25939713E-02  -2.32725181E-02   2.92595290E-02
  0.804687500       5.46875000E-02  -1.24354837E-02  -1.97896734E-02   2.87834965E-02
  0.820312500       5.46875000E-02  -3.47655639E-03  -1.55693740E-02   2.82696504E-02
  0.835937500       5.46875000E-02   3.93780740E-03  -1.09374709E-02   2.77625769E-02
  0.851562500       5.46875000E-02   9.47870687E-03  -6.28202921E-03   2.72839647E-02
  0.867187500       5.46875000E-02   1.30332252E-02  -1.97641412E-03   2.68620439E-02
  0.882812500       5.46875000E-02   1.46858916E-02   1.70478609E-03   2.65158955E-02
  0.898437500       5.46875000E-02   1.46736279E-02   4.59962990E-03   2.62458511E-02
  0.914062500       5.46875000E-02   1.33327786E-02   6.68812543E-03   2.60454156E-02
  0.929687500       5.46875000E-02   1.10268742E-02   7.93976337E-03   2.59080399E-02
  0.945312500       5.46875000E-02   8.14133417E-03   8.28403328E-03   2.58262940E-02
  0.960937500       5.46875000E-02   5.09611145E-03   7.58971088E-03   2.57948954E-02
  0.976562500       5.46875000E-02   2.37351423E-03   5.67272957E-03   2.58133542E-02
  0.992187500       5.46875000E-02   5.79111977E-04   2.36212951E-03   2.58885995E-02
   7.81250000E-03   7.03125000E-02   1.69682942E-04  -1.48212141E-03   2.43648849E-02
   2.34375000E-02   7.03125000E-02   5.78110164E-04  -2.81978538E-03   2.43691001E-02
   3.90625000E-02   7.03125000E-02   9.49773705E-04  -2.93989247E-03   2.43397374E-02
   5.46875000E-02   7.03125000E-02   9.95483249E-04  -2.19579414E-03   2.42817048E-02
   7.03125000E-02   7.03125000E-02   5.21698850E-04  -8.71432130E-04   2.41999924E-02
   8.59375000E-02   7.03125000E-02  -6.01215172E-04   8.12274637E-04   2.40992997E-02
  0.101562500       7.03125000E-02  -2.44186376E-03   2.68697343E-03   2.39823069E-02
  0.117187500       7.03125000E-02  -5.02956240E-03   4.63491073E-03   2.38512307E-02
  0.132812500       7.03125000E-02  -8.37829430E-03   6.59367582E-03   2.37059500E-02
  0.148437500       7.03125000E-02  -1.24889212E-02   8.53725802E-03   2.35454943E-02
  0.164062500       7.03125000E-02  -1.73538942E-02   1.04600880E-02   2.33679600E-02
  0.179687500       7.03125000E-02  -2.29576807E-02   1.23653226E-02   2.31711995E-02
  0.195312500       7.03125000E-02  -2.92751398E-02   1.42530901E-02   2.29531117E-02
  0.210937500       7.03125000E-02  -3.62697467E-02   1.61150955E-02   2.27119811E-02
  0.226562500       7.03125000E-02  -4.38918732E-02   1.79325212E-02   2.24467218E-02
  0.242187500       7.03125000E-02  -5.20780422E-02   1.96771473E-02   2.21571196E-02
  0.257812500       7.03125000E-02  -6.07510693E-02   2.13139057E-02   2.18439978E-02
  0.273437500       7.03125000E-02  -6.98210597E-02   2.28038840E-02   2.15093736E-02
  0.289062500       7.03125000E-02  -7.91871250E-02   2.41070278E-02   2.11566277E-02
  0.304687500       7.03125000E-02  -8.87394845E-02   2.51843333E-02   2.07906067E-02
  0.320312500       7.03125000E-02  -9.83619094E-02   2.59995833E-02   2.04176996E-02
  0.335937500       7.03125000E-02 -0.107934244       2.65205428E-02   2.00458262E-02
  0.351562500       7.03125000E-02 -0.117334887       2.67198067E-02   1.96844209E-02
  0.367187500       7.03125000E-02 -0.126443118       2.65753772E-02   1.93442386E-02
  0.382812500       7.03125000E-02 -0.135141179       2.60709245E-02   1.90371312E-02
  0.398437500       7.03125000E-02 -0.143316150       2.51958799E-02   1.87757518E-02
  0.414062500       7.03125000E-02 -0.150861457       2.39453260E-02   1.85731687E-02
  0.429687500       7.03125000E-02 -0.157678068       2.23197918E-02   1.84423961E-02
  0.445312500       7.03125000E-02 -0.163675383       2.03248821E-02   1.83959417E-02
  0.460937500       7.03125000E-02 -0.168771937       1.79708973E-02   1.84452459E-02
  0.476562500       7.03125000E-02 -0.172895670       1.52724367E-02   1.86001845E-02
  0.492187500       7.03125000E-02 -0.175983965       1.22480765E-02   1.88685376E-02
  0.507812500       7.03125000E-02 -0.177983463       8.92010145E-03   1.92555618E-02
  0.523437500       7.03125000E-02 -0.178849369       5.31444512E-03   1.97636932E-02
  0.539062500       7.03125000E-02 -0.178543240       1.46108586E-03   2.03926824E-02
  0.554687500       7.03125000E-02 -0.177026078      -2.60422612E-03   2.11153030E-02
  0.570312500       7.03125000E-02 -0.174285263      -6.87049236E-03   2.19229795E-02
  0.585937500       7.03125000E-02 -0.170336127      -1.12523586E-02   2.28034370E-02
  0.601562500       7.03125000E-02 -0.165197775      -1.56740006E-02   2.37342194E-02
  0.617187500       7.03125000E-02 -0.158899471      -2.00530812E-02   2.46889312E-02
  0.632812500       7.03125000E-02 -0.151481166      -2.42991541E-02   2.56380327E-02
  0.648437500       7.03125000E-02 -0.142995447      -2.83131748E-02   2.65497826E-02
  0.664062500       7.03125000E-02 -0.133510083      -3.19871828E-02   2.73914933E-02
  0.679687500       7.03125000E-02 -0.123110950      -3.52045149E-02   2.81312484E-02
  0.695312500       7.03125000E-02 -0.111905113      -3.78408469E-02   2.87399199E-02
  0.710937500       7.03125000E-02 -0.100023925      -3.97666767E-02   2.91934647E-02
  0.726562500       7.03125000E-02  -8.76260251E-02  -4.08516452E-02   2.94752866E-02
  0.742187500       7.03125000E-02  -7.48999417E-02  -4.09712121E-02   2.95784920E-02
  0.757812500       7.03125000E-02  -6.20658547E-02  -4.00164202E-02   2.95076557E-02
  0.773437500       7.03125000E-02  -4.93755415E-02  -3.79069783E-02   2.92797051E-02
  0.789062500       7.03125000E-02  -3.71094793E-02  -3.46083306E-02   2.89235599E-02
  0.804687500       7.03125000E-02  -2.55693179E-02  -3.01532336E-02   2.84779929E-02
  0.820312500       7.03125000E-02  -1.50654241E-02  -2.46693380E-02   2.79875118E-02
  0.835937500       7.03125000E-02  -5.90371480E-03  -1.84142664E-02   2.74965987E-02
  0.851562500       7.03125000E-02   1.59028592E-03  -1.18408017E-02   2.70379335E-02
  0.867187500       7.03125000E-02   7.06623122E-03  -5.44875767E-03   2.66330764E-02
  0.882812500       7.03125000E-02   1.04028611E-02   1.87181111E-04   2.63030790E-02
  0.898437500       7.03125000E-02   1.17636863E-02   4.76801628E-03   2.60545015E-02
  0.914062500       7.03125000E-02   1.14636300E-02   8.15999787E-03   2.58752163E-02
  0.929687500       7.03125000E-02   9.91647132E-03   1.03203189E-02   2.57564280E-02
  0.945312500       7.03125000E-02   7.55046960E-03   1.11543862E-02   2.56889630E-02
  0.960937500       7.03125000E-02   4.82818764E-03   1.04862256E-02   2.56665908E-02
  0.976562500       7.03125000E-02   2.27898499E-03   8.04737676E-03   2.56889816E-02
  0.992187500       7.03125000E-02   5.59656182E-04   3.50067066E-03   2.57639885E-02
   7.81250000E-03   8.59375000E-02   9.16016070E-05  -1.74373074E-03   2.44959854E-02
   2.34375000E-02   8.59375000E-02   2.18221947E-04  -3.09396069E-03   2.44844593E-02
   3.90625000E-02   8.59375000E-02   7.74849686E-05  -2.89746374E-03   2.44429149E-02
   5.46875000E-02   8.59375000E-02  -5.84626978E-04  -1.62263517E-03   2.43762545E-02
   7.03125000E-02   8.59375000E-02  -1.93312834E-03   3.76885990E-04   2.42898054E-02
   8.59375000E-02   8.59375000E-02  -4.05760482E-03   2.81053735E-03   2.41862908E-02
  0.101562500       8.59375000E-02  -6.99727796E-03   5.46821393E-03   2.40693353E-02
  0.117187500       8.59375000E-02  -1.07722366E-02   8.21551681E-03   2.39396561E-02
  0.132812500       8.59375000E-02  -1.53864380E-02   1.09752025E-02   2.37962976E-02
  0.148437500       8.59375000E-02  -2.08314322E-02   1.37105715E-02   2.36371122E-02
  0.164062500       8.59375000E-02  -2.70870943E-02   1.64066311E-02   2.34591123E-02
  0.179687500       8.59375000E-02  -3.41205597E-02   1.90552492E-02   2.32590456E-02
  0.195312500       8.59375000E-02  -4.18846346E-02   2.16439180E-02   2.30337884E-02
  0.210937500       8.59375000E-02  -5.03168963E-02   2.41503660E-02   2.27807295E-02
  0.226562500       8.59375000E-02  -5.93397915E-02   2.65415199E-02   2.24980712E-02
  0.242187500       8.59375000E-02  -6.88617975E-02   2.87755858E-02   2.21850686E-02
  0.257812500       8.59375000E-02  -7.87794143E-02   3.08053810E-02   2.18422506E-02
  0.273437500       8.59375000E-02  -8.89796317E-02   3.25818956E-02   2.14715879E-02
  0.289062500       8.59375000E-02  -9.93426591E-02   3.40574011E-02   2.10766755E-02
  0.304687500       8.59375000E-02 -0.109744787       3.51877585E-02   2.06628144E-02
  0.320312500       8.59375000E-02 -0.120061070       3.59341875E-02   2.02370808E-02
  0.335937500       8.59375000E-02 -0.130167797       3.62643674E-02   1.98082626E-02
  0.351562500       8.59375000E-02 -0.139944866       3.61530744E-02   1.93868168E-02
  0.367187500       8.59375000E-02 -0.149277627       3.55824903E-02   1.89845767E-02
  0.382812500       8.59375000E-02 -0.158058479       3.45421433E-02   1.86145436E-02
  0.398437500       8.59375000E-02 -0.166188121       3.30286920E-02   1.82904601E-02
  0.414062500       8.59375000E-02 -0.173576295       3.10454406E-02   1.80264171E-02