 VARIABLES="X","Y","U","V","P"
 ZONE F=POINT, I=          64 , J=          64
   7.81250000E-03   7.81250000E-03   5.40696019E-05  -5.41959234E-05   2.42252517E-02
   2.34375000E-02   7.81250000E-03   2.74591555E-04  -1.66618964E-04   2.42403783E-02
   3.90625000E-02   7.81250000E-03   6.55145966E-04  -2.14268424E-04   2.42278259E-02
   5.46875000E-02   7.81250000E-03   1.07750017E-03  -2.08422352E-04   2.41783094E-02
   7.03125000E-02   7.81250000E-03   1.45565381E-03  -1.70073399E-04   2.40924731E-02
   8.59375000E-02   7.81250000E-03   1.74119556E-03  -1.15807459E-04   2.39748843E-02
  0.101562500       7.81250000E-03   1.91286765E-03  -5.61991728E-05   2.38307603E-02
  0.117187500       7.81250000E-03   1.96566712E-03   3.06548372E-06   2.36644112E-02
  0.132812500       7.81250000E-03   1.90252275E-03   5.97459366E-05   2.34788023E-02
  0.148437500       7.81250000E-03   1.72920967E-03   1.13239905E-04   2.32755803E-02
  0.164062500       7.81250000E-03   1.45042804E-03   1.65218633E-04   2.30551418E-02
  0.179687500       7.81250000E-03   1.06829777E-03   2.16589542E-04   2.28174105E-02
  0.195312500       7.81250000E-03   5.81509375E-04   2.69883167E-04   2.25618668E-02
  0.210937500       7.81250000E-03  -1.43988727E-05   3.25712143E-04   2.22888384E-02
  0.226562500       7.81250000E-03  -7.24944635E-04   3.84523737E-04   2.19985880E-02
  0.242187500       7.81250000E-03  -1.55652477E-03   4.46750812E-04   2.16927212E-02
  0.257812500       7.81250000E-03  -2.51551042E-03   5.11931838E-04   2.13735476E-02
  0.273437500       7.81250000E-03  -3.60686658E-03   5.79130079E-04   2.10444629E-02
  0.289062500       7.81250000E-03  -4.83336905E-03   6.47086941E-04   2.07100082E-02
  0.304687500       7.81250000E-03  -6.19504834E-03   7.14307127E-04   2.03758925E-02
  0.320312500       7.81250000E-03  -7.68874958E-03   7.79110414E-04   2.00489908E-02
  0.335937500       7.81250000E-03  -9.30779986E-03   8.39665241E-04   1.97373014E-02
  0.351562500       7.81250000E-03  -1.10417623E-02   8.94029567E-04   1.94498673E-02
  0.367187500       7.81250000E-03  -1.28762461E-02   9.40191443E-04   1.91966388E-02
  0.382812500       7.81250000E-03  -1.47928018E-02   9.76107258E-04   1.89882778E-02
  0.398437500       7.81250000E-03  -1.67689137E-02   9.99748823E-04   1.88359078E-02
  0.414062500       7.81250000E-03  -1.87780671E-02   1.00915495E-03   1.87507980E-02
  0.429687500       7.81250000E-03  -2.07899418E-02   1.00247341E-03   1.87439956E-02
  0.445312500       7.81250000E-03  -2.27706544E-02   9.77995689E-04   1.88259147E-02
  0.460937500       7.81250000E-03  -2.46830918E-02   9.34202981E-04   1.90058686E-02
  0.476562500       7.81250000E-03  -2.64873020E-02   8.69775016E-04   1.92915741E-02
  0.492187500       7.81250000E-03  -2.81409249E-02   7.83614814E-04   1.96886286E-02
  0.507812500       7.81250000E-03  -2.95996442E-02   6.74865732E-04   2.01999359E-02
  0.523437500       7.81250000E-03  -3.08177508E-02   5.42993832E-04   2.08250973E-02
  0.539062500       7.81250000E-03  -3.17490846E-02   3.88093555E-04   2.15597041E-02
  0.554687500       7.81250000E-03  -3.23493630E-02   2.11923209E-04   2.23945603E-02
  0.570312500       7.81250000E-03  -3.25819142E-02   2.03568816E-05   2.33148374E-02
  0.585937500       7.81250000E-03  -3.24221477E-02  -1.80396441E-04   2.42928360E-02
  0.601562500       7.81250000E-03  -3.18383910E-02  -4.03644925E-04   2.53019538E-02
  0.617187500       7.81250000E-03  -3.07935439E-02  -6.41500577E-04   2.63175815E-02
  0.632812500       7.81250000E-03  -2.92680375E-02  -8.84310459E-04   2.73100883E-02
  0.648437500       7.81250000E-03  -2.72618830E-02  -1.12215814E-03   2.82470174E-02
  0.664062500       7.81250000E-03  -2.47955024E-02  -1.34455110E-03   2.90949568E-02
  0.679687500       7.81250000E-03  -2.19109915E-02  -1.54029729E-03   2.98215598E-02
  0.695312500       7.81250000E-03  -1.86732970E-02  -1.69773703E-03   3.03978138E-02
  0.710937500       7.81250000E-03  -1.51705965E-02  -1.80530269E-03   3.08004804E-02
  0.726562500       7.81250000E-03  -1.15132863E-02  -1.85234426E-03   3.10144909E-02
  0.742187500       7.81250000E-03  -7.83110037E-03  -1.83017936E-03   3.10350135E-02
  0.757812500       7.81250000E-03  -4.26820526E-03  -1.73305557E-03   3.08688674E-02
  0.773437500       7.81250000E-03  -9.77437478E-04  -1.55804807E-03   3.05349585E-02
  0.789062500       7.81250000E-03   1.88130466E-03  -1.30102038E-03   3.00687589E-02
  0.804687500       7.81250000E-03   4.17702692E-03  -9.95021313E-04   2.95124799E-02
  0.820312500       7.81250000E-03   5.84195461E-03  -6.70214475E-04   2.89079323E-02
  0.835937500       7.81250000E-03   6.86295144E-03  -3.51077149E-04   2.82964446E-02
  0.851562500       7.81250000E-03   7.27673247E-03  -6.29950664E-05   2.77150162E-02
  0.867187500       7.81250000E-03   7.16398936E-03   1.75445690E-04   2.71922834E-02
  0.882812500       7.81250000E-03   6.62891520E-03   3.59339843E-04   2.67471746E-02
  0.898437500       7.81250000E-03   5.77842817E-03   4.90864215E-04   2.63873488E-02
  0.914062500       7.81250000E-03   4.71377652E-03   5.73505182E-04   2.61144191E-02
  0.929687500       7.81250000E-03   3.53198359E-03   6.08006958E-04   2.59262919E-02
  0.945312500       7.81250000E-03   2.33537704E-03   5.88314666E-04   2.58186273E-02
  0.960937500       7.81250000E-03   1.24843698E-03   4.98344190E-04   2.57843807E-02
  0.976562500       7.81250000E-03   4.32941131E-04   3.16881808E-04   2.58095022E-02
  0.992187500       7.81250000E-03   5.79626649E-05   5.78764448E-05   2.58623250E-02
   7.81250000E-03   2.34375000E-02   1.67664097E-04  -2.76221952E-04   2.42100973E-02
   2.34375000E-02   2.34375000E-02   6.82474929E-04  -6.80596277E-04   2.42251121E-02
   3.90625000E-02   2.34375000E-02   1.43666193E-03  -8.35790881E-04   2.42093615E-02
   5.46875000E-02   2.34375000E-02   2.21788976E-03  -7.91243801E-04   2.41606180E-02
   7.03125000E-02   2.34375000E-02   2.87045166E-03  -6.18729508E-04   2.40801293E-02
   8.59375000E-02   2.34375000E-02   3.29437386E-03  -3.77373275E-04   2.39713676E-02
  0.101562500       2.34375000E-02   3.43408505E-03  -1.06767169E-04   2.38383170E-02
  0.117187500       2.34375000E-02   3.26433824E-03   1.69837745E-04   2.36843228E-02
  0.132812500       2.34375000E-02   2.77821999E-03   4.41498094E-04   2.35116687E-02
  0.148437500       2.34375000E-02   1.97852589E-03   7.03763450E-04   2.33217273E-02
  0.164062500       2.34375000E-02   8.68489384E-04   9.62786842E-04   2.31146403E-02
  0.179687500       2.34375000E-02  -5.51408040E-04   1.22032489E-03   2.28905417E-02
  0.195312500       2.34375000E-02  -2.28170655E-03   1.48252014E-03   2.26483345E-02
  0.210937500       2.34375000E-02  -4.32709651E-03   1.75366830E-03   2.23887414E-02
  0.226562500       2.34375000E-02  -6.69564214E-03   2.03496427E-03   2.21121106E-02
  0.242187500       2.34375000E-02  -9.39422846E-03   2.32578837E-03   2.18196828E-02
  0.257812500       2.34375000E-02  -1.24258492E-02   2.62281857E-03   2.15135626E-02
  0.273437500       2.34375000E-02  -1.57877840E-02   2.92087416E-03   2.11968478E-02
  0.289062500       2.34375000E-02  -1.94700956E-02   3.21351201E-03   2.08737273E-02
  0.304687500       2.34375000E-02  -2.34545842E-02   3.49341054E-03   2.05495246E-02
  0.320312500       2.34375000E-02  -2.77142003E-02   3.75269074E-03   2.02307198E-02
  0.335937500       2.34375000E-02  -3.22128236E-02   3.98313906E-03   1.99249350E-02
  0.351562500       2.34375000E-02  -3.69053669E-02   4.17645322E-03   1.96408592E-02
  0.367187500       2.34375000E-02  -4.17381637E-02   4.32445621E-03   1.93881374E-02
  0.382812500       2.34375000E-02  -4.66496423E-02   4.41929419E-03   1.91771761E-02
  0.398437500       2.34375000E-02  -5.15711606E-02   4.45361389E-03   1.90189183E-02
  0.414062500       2.34375000E-02  -5.64280525E-02   4.42076754E-03   1.89245176E-02
  0.429687500       2.34375000E-02  -6.11408241E-02   4.31494927E-03   1.89049840E-02
  0.445312500       2.34375000E-02  -6.56264424E-02   4.13129851E-03   1.89707745E-02
  0.460937500       2.34375000E-02  -6.97996393E-02   3.86599451E-03   1.91313159E-02
  0.476562500       2.34375000E-02  -7.35743046E-02   3.51632037E-03   1.93945244E-02
  0.492187500       2.34375000E-02  -7.68648535E-02   3.08071100E-03   1.97662618E-02
  0.507812500       2.34375000E-02  -7.95877874E-02   2.55887280E-03   2.02498045E-02
  0.523437500       2.34375000E-02  -8.16633403E-02   1.95209100E-03   2.08452735E-02
  0.539062500       2.34375000E-02  -8.30177665E-02   1.26419181E-03   2.15490945E-02
  0.554687500       2.34375000E-02  -8.35868716E-02   5.04616415E-04   2.23534461E-02
  0.570312500       2.34375000E-02  -8.33262801E-02  -3.00979911E-04   2.32439060E-02
  0.585937500       2.34375000E-02  -8.21716636E-02  -1.17406622E-03   2.41816770E-02
  0.601562500       2.34375000E-02  -8.00573677E-02  -2.10867263E-03   2.51534767E-02
  0.617187500       2.34375000E-02  -7.69632310E-02  -3.07613867E-03   2.61329375E-02
  0.632812500       2.34375000E-02  -7.28951991E-02  -4.04390600E-03   2.70907320E-02
  0.648437500       2.34375000E-02  -6.78870007E-02  -4.97762393E-03   2.79952586E-02
  0.664062500       2.34375000E-02  -6.20024279E-02  -5.84078301E-03   2.88141314E-02
  0.679687500       2.34375000E-02  -5.53370267E-02  -6.59472914E-03   2.95161009E-02
  0.695312500       2.34375000E-02  -4.80193794E-02  -7.19940104E-03   3.00732553E-02
  0.710937500       2.34375000E-02  -4.02116477E-02  -7.61482911E-03   3.04634571E-02
  0.726562500       2.34375000E-02  -3.21090259E-02  -7.80352345E-03   3.06726694E-02
  0.742187500       2.34375000E-02  -2.39373781E-02  -7.73360720E-03   3.06970142E-02
  0.757812500       2.34375000E-02  -1.59483757E-02  -7.38228858E-03   3.05441320E-02
  0.773437500       2.34375000E-02  -8.41068197E-03  -6.73802942E-03   3.02335545E-02
  0.789062500       2.34375000E-02  -1.59441633E-03  -5.79678221E-03   2.97955945E-02
  0.804687500       2.34375000E-02   4.20344295E-03  -4.59355768E-03   2.92836204E-02
  0.820312500       2.34375000E-02   8.74139275E-03  -3.27525078E-03   2.87287682E-02
  0.835937500       2.34375000E-02   1.19230058E-02  -1.94932637E-03   2.81674191E-02
  0.851562500       2.34375000E-02   1.37562267E-02  -7.12417299E-04   2.76349541E-02
  0.867187500       2.34375000E-02   1.43407620E-02   3.52415605E-04   2.71578059E-02
  0.882812500       2.34375000E-02   1.38569279E-02   1.20063860E-03   2.67519839E-02
  0.898437500       2.34375000E-02   1.25246663E-02   1.83167565E-03   2.64239870E-02
  0.914062500       2.34375000E-02   1.05700307E-02   2.25134380E-03   2.61741430E-02
  0.929687500       2.34375000E-02   8.22416414E-03   2.45719729E-03   2.59991921E-02
  0.945312500       2.34375000E-02   5.73280454E-03   2.42645945E-03   2.58938074E-02
  0.960937500       2.34375000E-02   3.37142753E-03   2.10789545E-03   2.58511789E-02
  0.976562500       2.34375000E-02   1.45538093E-03   1.43826241E-03   2.58623362E-02
  0.992187500       2.34375000E-02   3.25355533E-04   4.40979493E-04   2.59150732E-02
   7.81250000E-03   3.90625000E-02   2.18937610E-04  -6.63160987E-04   2.42227130E-02
   2.34375000E-02   3.90625000E-02   8.46793177E-04  -1.43708405E-03   2.42398642E-02
   3.90625000E-02   3.90625000E-02   1.69539219E-03  -1.68294343E-03   2.42226720E-02
   5.46875000E-02   3.90625000E-02   2.49462854E-03  -1.52540999E-03   2.41734628E-02
   7.03125000E-02   3.90625000E-02   3.05816997E-03  -1.10151223E-03   2.40952484E-02
   8.59375000E-02   3.90625000E-02   3.26253939E-03  -5.23727154E-04   2.39918102E-02
  0.101562500       3.90625000E-02   3.03004473E-03   1.31535533E-04   2.38667782E-02
  0.117187500       3.90625000E-02   2.31955340E-03   8.10951635E-04   2.37227660E-02
  0.132812500       3.90625000E-02   1.11399149E-03   1.49124593E-03   2.35614609E-02
  0.148437500       3.90625000E-02  -5.91532618E-04   2.15841993E-03   2.33842656E-02
  0.164062500       3.90625000E-02  -2.79193372E-03   2.81775859E-03   2.31896415E-02
  0.179687500       3.90625000E-02  -5.48313232E-03   3.47564043E-03   2.29778700E-02
  0.195312500       3.90625000E-02  -8.66655819E-03   4.14012466E-03   2.27481164E-02
  0.210937500       3.90625000E-02  -1.23434216E-02   4.81752492E-03   2.25001778E-02
  0.226562500       3.90625000E-02  -1.65119581E-02   5.50741376E-03   2.22342331E-02
  0.242187500       3.90625000E-02  -2.11648270E-02   6.20403700E-03   2.19511669E-02
  0.257812500       3.90625000E-02  -2.62862518E-02   6.89686416E-03   2.16527097E-02
  0.273437500       3.90625000E-02  -3.18500660E-02   7.57183693E-03   2.13415958E-02
  0.289062500       3.90625000E-02  -3.78185362E-02   8.21260363E-03   2.10216269E-02
  0.304687500       3.90625000E-02  -4.41419631E-02   8.80151987E-03   2.06977874E-02
  0.320312500       3.90625000E-02  -5.07588983E-02   9.32042673E-03   2.03762557E-02
  0.335937500       3.90625000E-02  -5.75968996E-02   9.75133106E-03   2.00644452E-02
  0.351562500       3.90625000E-02  -6.45737350E-02   1.00769531E-02   1.97709203E-02
  0.367187500       3.90625000E-02  -7.15988576E-02   1.02812191E-02   1.95053071E-02
  0.382812500       3.90625000E-02  -7.85751343E-02   1.03496481E-02   1.92780979E-02
  0.398437500       3.90625000E-02  -8.54006708E-02   1.02696698E-02   1.91004425E-02
  0.414062500       3.90625000E-02  -9.19706374E-02   1.00309271E-02   1.89837907E-02
  0.429687500       3.90625000E-02  -9.81791094E-02   9.62541439E-03   1.89395268E-02
  0.445312500       3.90625000E-02 -0.103920862       9.04759020E-03   1.89785734E-02
  0.460937500       3.90625000E-02 -0.109092981       8.29442404E-03   1.91108696E-02
  0.476562500       3.90625000E-02 -0.113596484       7.36545073E-03   1.93448849E-02
  0.492187500       3.90625000E-02 -0.117337748       6.26280718E-03   1.96871031E-02
  0.507812500       3.90625000E-02 -0.120230101       4.99144476E-03   2.01414768E-02
  0.523437500       3.90625000E-02 -0.122195289       3.55965039E-03   2.07089856E-02
  0.539062500       3.90625000E-02 -0.123164922       1.98005489E-03   2.13874038E-02
  0.554687500       3.90625000E-02 -0.123078704       2.70997029E-04   2.21721064E-02
  0.570312500       3.90625000E-02 -0.121865556      -1.54176413E-03   2.30252035E-02
  0.585937500       3.90625000E-02 -0.119473219      -3.48094618E-03   2.39374060E-02
  0.601562500       3.90625000E-02 -0.115891710      -5.49832359E-03   2.48869695E-02
  0.617187500       3.90625000E-02 -0.111132421      -7.54066464E-03   2.58477125E-02
  0.632812500       3.90625000E-02 -0.105230182      -9.55043174E-03   2.67902631E-02
  0.648437500       3.90625000E-02  -9.82440561E-02  -1.14662070E-02   2.76831016E-02
  0.664062500       3.90625000E-02  -9.02591124E-02  -1.32225323E-02   2.84939446E-02
  0.679687500       3.90625000E-02  -8.13881606E-02  -1.47501547E-02   2.91916206E-02
  0.695312500       3.90625000E-02  -7.17735067E-02  -1.59771107E-02   2.97482572E-02
  0.710937500       3.90625000E-02  -6.15883693E-02  -1.68308243E-02   3.01416311E-02
  0.726562500       3.90625000E-02  -5.10378294E-02  -1.72415487E-02   3.03575732E-02
  0.742187500       3.90625000E-02  -4.03586775E-02  -1.71472393E-02   3.03920656E-02
  0.757812500       3.90625000E-02  -2.98174154E-02  -1.64997596E-02   3.02527379E-02
  0.773437500       3.90625000E-02  -1.97049230E-02  -1.52715649E-02   2.99593899E-02
  0.789062500       3.90625000E-02  -1.03246197E-02  -1.34606156E-02   2.95432582E-02
  0.804687500       3.90625000E-02  -1.96529552E-03  -1.10876951E-02   2.90449224E-02
  0.820312500       3.90625000E-02   5.03248163E-03  -8.31761118E-03   2.85199955E-02
  0.835937500       3.90625000E-02   1.03761759E-02  -5.43302577E-03   2.79901177E-02
  0.851562500       3.90625000E-02   1.39679667E-02  -2.65448028E-03   2.74891593E-02
  0.867187500       3.90625000E-02   1.58470925E-02  -1.69917097E-04   2.70451140E-02
  0.882812500       3.90625000E-02   1.61740016E-02   1.87918940E-03   2.66727954E-02
  0.898437500       3.90625000E-02   1.52088441E-02   3.44983535E-03   2.63749436E-02
  0.914062500       3.90625000E-02   1.32526159E-02   4.54334496E-03   2.61498205E-02
  0.929687500       3.90625000E-02   1.06171034E-02   5.14587946E-03   2.59924568E-02
  0.945312500       3.90625000E-02   7.63373077E-03   5.21181058E-03   2.58966349E-02
  0.960937500       3.90625000E-02   4.66565602E-03   4.65129642E-03   2.58567668E-02
  0.976562500       3.90625000E-02   2.12535495E-03   3.35051189E-03   2.58695036E-02
  0.992187500       3.90625000E-02   5.08713303E-04   1.27479597E-03   2.59359125E-02
   7.81250000E-03   5.46875000E-02   2.15054723E-04  -1.09749567E-03   2.42739785E-02
   2.34375000E-02   5.46875000E-02   7.97717948E-04  -2.21403036E-03   2.42879372E-02
   3.90625000E-02   5.46875000E-02   1.50771230E-03  -2.46544206E-03   2.42666956E-02
   5.46875000E-02   5.46875000E-02   2.04933528E-03  -2.08462100E-03   2.42145620E-02
   7.03125000E-02   5.46875000E-02   2.22494174E-03  -1.28229219E-03   2.41358951E-02
   8.59375000E-02   5.46875000E-02   1.90124521E-03  -2.24465271E-04   2.40351297E-02
  0.101562500       5.46875000E-02   9.91819543E-04   9.73360613E-04   2.39150263E-02
  0.117187500       5.46875000E-02  -5.49463672E-04   2.22007395E-03   2.37790886E-02
  0.132812500       5.46875000E-02  -2.73658987E-03   3.47398501E-03   2.36273780E-02
  0.148437500       5.46875000E-02  -5.57058537E-03   4.71438142E-03   2.34601591E-02
  0.164062500       5.46875000E-02  -9.05024260E-03   5.94104221E-03   2.32762210E-02
  0.179687500       5.46875000E-02  -1.31708048E-02   7.16331229E-03   2.30745003E-02
  0.195312500       5.46875000E-02  -1.79240033E-02   8.38827714E-03   2.28537526E-02
  0.210937500       5.46875000E-02  -2.32961085E-02   9.61754099E-03   2.26130802E-02
  0.226562500       5.46875000E-02  -2.92649157E-02   1.08439540E-02   2.23521236E-02
  0.242187500       5.46875000E-02  -3.57975103E-02   1.20521989E-02   2.20712535E-02
  0.257812500       5.46875000E-02  -4.28485572E-02   1.32204220E-02   2.17717420E-02
  0.273437500       5.46875000E-02  -5.03595583E-02   1.43223479E-02   2.14559156E-02
  0.289062500       5.46875000E-02  -5.82590140E-02   1.53292846E-02   2.11272705E-02
  0.304687500       5.46875000E-02  -6.64633140E-02   1.62118450E-02   2.07905695E-02
  0.320312500       5.46875000E-02  -7.48782456E-02   1.69412531E-02   2.04519313E-02
  0.335937500       5.46875000E-02  -8.34008753E-02   1.74904466E-02   2.01188345E-02
  0.351562500       5.46875000E-02  -9.19217467E-02   1.78348664E-02   1.98000707E-02
  0.367187500       5.46875000E-02 -0.100327075       1.79530997E-02   1.95056219E-02
  0.382812500       5.46875000E-02 -0.108500987       1.78273208E-02   1.92464776E-02
  0.398437500       5.46875000E-02 -0.116327681       1.74435899E-02   1.90343838E-02
  0.414062500       5.46875000E-02 -0.123693362       1.67920198E-02   1.88814551E-02
  0.429687500       5.46875000E-02 -0.130488008       1.58668142E-02   1.87998116E-02
  0.445312500       5.46875000E-02 -0.136606812       1.46661606E-02   1.88011136E-02
  0.460937500       5.46875000E-02 -0.141951591       1.31921601E-02   1.88960396E-02
  0.476562500       5.46875000E-02 -0.146431625       1.14506744E-02   1.90937854E-02
  0.492187500       5.46875000E-02 -0.149964586       9.45122354E-03   1.94015373E-02
  0.507812500       5.46875000E-02 -0.152476907       7.20708491E-03   1.98239684E-02
  0.523437500       5.46875000E-02 -0.153904021       4.73570498E-03   2.03627460E-02
  0.539062500       5.46875000E-02 -0.154190779       2.05975678E-03   2.10159533E-02
  0.554687500       5.46875000E-02 -0.153295577      -7.90733437E-04   2.17762981E-02
  0.570312500       5.46875000E-02 -0.151170433      -3.81896878E-03   2.26016399E-02
  0.585937500       5.46875000E-02 -0.147790611      -6.97661750E-03   2.34948993E-02
  0.601562500       5.46875000E-02 -0.143176109      -1.01993773E-02   2.44317725E-02
  0.617187500       5.46875000E-02 -0.137359604      -1.34161413E-02   2.53854319E-02
  0.632812500       5.46875000E-02 -0.130387679      -1.65498927E-02   2.63262391E-02
  0.648437500       5.46875000E-02 -0.122323766      -1.95175707E-02   2.72224844E-02
  0.664062500       5.46875000E-02 -0.113250762      -2.22299080E-02   2.80416738E-02
  0.679687500       5.46875000E-02 -0.103273630      -2.45916676E-02   2.87523121E-02
  0.695312500       5.46875000E-02  -9.25218761E-02  -2.65028253E-02   2.93260030E-02
  0.710937500       5.46875000E-02  -8.11520442E-02  -2.78609041E-02   2.97398083E-02
  0.726562500       5.46875000E-02  -6.93498999E-02  -2.85649896E-02   2.99786367E-02
  0.742187500       5.46875000E-02  -5.73319606E-02  -2.85217203E-02   3.00374255E-02
  0.757812500       5.46875000E-02  -4.53457832E-02  -2.76535526E-02   2.99227796E-02
  0.773437500       5.46875000E-02  -3.36676985E-02  -2.59091686E-02   2.96536908E-02
  0.789062500       5.46875000E-02  -2.25960817E-02  -2.32757218E-02   2.92609315E-02
  0.804687500       5.46875000E-02  -1.24363573E-02  -1.97924171E-02   2.87848040E-02
  0.820312500       5.46875000E-02  -3.47628281E-03  -1.55715048E-02   2.82708630E-02
  0.835937500       5.46875000E-02   3.93905630E-03  -1.09389061E-02   2.77636964E-02
  0.851562500       5.46875000E-02   9.48067941E-03  -6.28274865E-03   2.72850003E-02
  0.867187500       5.46875000E-02   1.30356438E-02  -1.97646534E-03   2.68630125E-02
  0.882812500       5.46875000E-02   1.46884751E-02   1.70528749E-03   2.65168138E-02
  0.898437500       5.46875000E-02   1.46761332E-02   4.60053235E-03   2.62467377E-02
  0.914062500       5.46875000E-02   1.33350082E-02   6.68929424E-03   2.60462798E-02
  0.929687500       5.46875000E-02   1.10286921E-02   7.94105977E-03   2.59088948E-02
  0.945312500       5.46875000E-02   8.14266969E-03   8.28532781E-03   2.58271452E-02
  0.960937500       5.46875000E-02   5.09695103E-03   7.59086572E-03   2.57957466E-02
  0.976562500       5.46875000E-02   2.37391097E-03   5.67357801E-03   2.58142091E-02
  0.992187500       5.46875000E-02   5.79210173E-04   2.36247433E-03   2.58894674E-02
   7.81250000E-03   7.03125000E-02   1.69769293E-04  -1.48265506E-03   2.43660808E-02
   2.34375000E-02   7.03125000E-02   5.78453124E-04  -2.82097515E-03   2.43703052E-02
   3.90625000E-02   7.03125000E-02   9.50476155E-04  -2.94135930E-03   2.43409462E-02
   5.46875000E-02   7.03125000E-02   9.96537972E-04  -2.19722744E-03   2.42829081E-02
   7.03125000E-02   7.03125000E-02   5.23011084E-04  -8.72603385E-04   2.42011845E-02
   8.59375000E-02   7.03125000E-02  -5.99800609E-04   8.11517937E-04   2.41004825E-02
  0.101562500       7.03125000E-02  -2.44053430E-03   2.68670474E-03   2.39834674E-02
  0.117187500       7.03125000E-02  -5.02850907E-03   4.63515241E-03   2.38523725E-02
  0.132812500       7.03125000E-02  -8.37769452E-03   6.59438828E-03   2.37070750E-02
  0.148437500       7.03125000E-02  -1.24889426E-02   8.53840075E-03   2.35465933E-02
  0.164062500       7.03125000E-02  -1.73546877E-02   1.04616107E-02   2.33690329E-02
  0.179687500       7.03125000E-02  -2.29593739E-02   1.23671908E-02   2.31722463E-02
  0.195312500       7.03125000E-02  -2.92778499E-02   1.42552732E-02   2.29541212E-02
  0.210937500       7.03125000E-02  -3.62735689E-02   1.61175691E-02   2.27129422E-02
  0.226562500       7.03125000E-02  -4.38968837E-02   1.79352630E-02   2.24476252E-02
  0.242187500       7.03125000E-02  -5.20843044E-02   1.96801219E-02   2.21579634E-02
  0.257812500       7.03125000E-02  -6.07586056E-02   2.13170834E-02   2.18447670E-02
  0.273437500       7.03125000E-02  -6.98298812E-02   2.28072181E-02   2.15100683E-02
  0.289062500       7.03125000E-02  -7.91972205E-02   2.41104662E-02   2.11572386E-02
  0.304687500       7.03125000E-02  -8.87508169E-02   2.51878388E-02   2.07911227E-02
  0.320312500       7.03125000E-02  -9.83744413E-02   2.60031037E-02   2.04181131E-02
  0.335937500       7.03125000E-02 -0.107947923       2.65240148E-02   2.00461484E-02
  0.351562500       7.03125000E-02 -0.117349617       2.67231930E-02   1.96846481E-02
  0.367187500       7.03125000E-02 -0.126458779       2.65786219E-02   1.93443727E-02
  0.382812500       7.03125000E-02 -0.135157675       2.60739774E-02   1.90371759E-02
  0.398437500       7.03125000E-02 -0.143333390       2.51987018E-02   1.87757201E-02
  0.414062500       7.03125000E-02 -0.150879323       2.39478871E-02   1.85730699E-02
  0.429687500       7.03125000E-02 -0.157696411       2.23220643E-02   1.84422377E-02
  0.445312500       7.03125000E-02 -0.163694113       2.03268304E-02   1.83957443E-02
  0.460937500       7.03125000E-02 -0.168790907       1.79724917E-02   1.84450261E-02
  0.476562500       7.03125000E-02 -0.172914743       1.52736660E-02   1.85999610E-02
  0.492187500       7.03125000E-02 -0.176003054       1.22489184E-02   1.88683420E-02
  0.507812500       7.03125000E-02 -0.178002506       8.92054569E-03   1.92554072E-02
  0.523437500       7.03125000E-02 -0.178868234       5.31447679E-03   1.97636038E-02
  0.539062500       7.03125000E-02 -0.178561792       1.46070414E-03   2.03926824E-02
  0.554687500       7.03125000E-02 -0.177044243      -2.60503171E-03   2.11154018E-02
  0.570312500       7.03125000E-02 -0.174302951      -6.87173381E-03   2.19232012E-02
  0.585937500       7.03125000E-02 -0.170353264      -1.12540424E-02   2.28037983E-02
  0.601562500       7.03125000E-02 -0.165214300      -1.56761110E-02   2.37347241E-02
  0.617187500       7.03125000E-02 -0.158915296      -2.00556368E-02   2.46895831E-02
  0.632812500       7.03125000E-02 -0.151496232      -2.43021399E-02   2.56388374E-02
  0.648437500       7.03125000E-02 -0.143009633      -2.83165723E-02   2.65507270E-02
  0.664062500       7.03125000E-02 -0.133523345      -3.19909677E-02   2.73925848E-02
  0.679687500       7.03125000E-02 -0.123123236      -3.52086425E-02   2.81324591E-02
  0.695312500       7.03125000E-02 -0.111916356      -3.78452837E-02   2.87412368E-02
  0.710937500       7.03125000E-02 -0.100034058      -3.97713818E-02   2.91948542E-02
  0.726562500       7.03125000E-02  -8.76349956E-02  -4.08565328E-02   2.94767283E-02
  0.742187500       7.03125000E-02  -7.49077126E-02  -4.09762077E-02   2.95799505E-02
  0.757812500       7.03125000E-02  -6.20723814E-02  -4.00213972E-02   2.95090936E-02
  0.773437500       7.03125000E-02  -4.93808016E-02  -3.79117951E-02   2.92811058E-02
  0.789062500       7.03125000E-02  -3.71134654E-02  -3.46128270E-02   2.89248880E-02
  0.804687500       7.03125000E-02  -2.55720541E-02  -3.01572196E-02   2.84792315E-02
  0.820312500       7.03125000E-02  -1.50669534E-02  -2.46726312E-02   2.79886648E-02
  0.835937500       7.03125000E-02  -5.90411434E-03  -1.84166934E-02   2.74976641E-02
  0.851562500       7.03125000E-02   1.59086427E-03  -1.18422844E-02   2.70389207E-02
  0.867187500       7.03125000E-02   7.06753740E-03  -5.44928201E-03   2.66340002E-02
  0.882812500       7.03125000E-02   1.04045998E-02   1.87496946E-04   2.63039563E-02
  0.898437500       7.03125000E-02   1.17655806E-02   4.76898160E-03   2.60553546E-02
  0.914062500       7.03125000E-02   1.14654396E-02   8.16140696E-03   2.58760527E-02
  0.929687500       7.03125000E-02   9.91801266E-03   1.03219822E-02   2.57572588E-02
  0.945312500       7.03125000E-02   7.55163841E-03   1.11561129E-02   2.56897956E-02
  0.960937500       7.03125000E-02   4.82894015E-03   1.04878107E-02   2.56674252E-02
  0.976562500       7.03125000E-02   2.27934448E-03   8.04857165E-03   2.56898198E-02
  0.992187500       7.03125000E-02   5.59744774E-04   3.50118382E-03   2.57648397E-02
   7.81250000E-03   8.59375000E-02   9.16781719E-05  -1.74443866E-03   2.44972110E-02
   2.34375000E-02   8.59375000E-02   2.18523463E-04  -3.09548341E-03   2.44856961E-02
   3.90625000E-02   8.59375000E-02   7.80795090E-05  -2.89928215E-03   2.44441498E-02
   5.46875000E-02   8.59375000E-02  -5.83792105E-04  -1.62433856E-03   2.43774839E-02
   7.03125000E-02   8.59375000E-02  -1.93220109E-03   3.75599135E-04   2.42910199E-02
   8.59375000E-02   8.59375000E-02  -4.05677687E-03   2.80986424E-03   2.41874941E-02
  0.101562500       8.59375000E-02  -6.99673872E-03   5.46822418E-03   2.40705200E-02
  0.117187500       8.59375000E-02  -1.07721863E-02   8.21621995E-03   2.39408165E-02
  0.132812500       8.59375000E-02  -1.53870676E-02   1.09765511E-02   2.37974413E-02
  0.148437500       8.59375000E-02  -2.08329130E-02   1.37125012E-02   2.36382317E-02
  0.164062500       8.59375000E-02  -2.70895623E-02   1.64090861E-02   2.34602094E-02
  0.179687500       8.59375000E-02  -3.41241397E-02   1.90581661E-02   2.32601091E-02
  0.195312500       8.59375000E-02  -4.18894216E-02   2.16472521E-02   2.30348110E-02
  0.210937500       8.59375000E-02  -5.03229648E-02   2.41540615E-02   2.27816962E-02
  0.226562500       8.59375000E-02  -5.93471900E-02   2.65455395E-02   2.24989783E-02
  0.242187500       8.59375000E-02  -6.88705593E-02   2.87798606E-02   2.21859086E-02
  0.257812500       8.59375000E-02  -7.87895396E-02   3.08098570E-02   2.18430050E-02
  0.273437500       8.59375000E-02  -8.89910758E-02   3.25865149E-02   2.14722604E-02
  0.289062500       8.59375000E-02  -9.93553996E-02   3.40620801E-02   2.10772529E-02
  0.304687500       8.59375000E-02 -0.109758750       3.51924449E-02   2.06632856E-02
  0.320312500       8.59375000E-02 -0.120076142       3.59388106E-02   2.02374347E-02
  0.335937500       8.59375000E-02 -0.130183905       3.62688601E-02   1.98085196E-02
  0.351562500       8.59375000E-02 -0.139961898       3.61573771E-02   1.93869546E-02
  0.367187500       8.59375000E-02 -0.149295464       3.55865434E-02   1.89846102E-02
  0.382812500       8.59375000E-02 -0.158077016       3.45458910E-02   1.86144784E-02
  0.398437500       8.59375000E-02 -0.166207224       3.30320820E-02   1.82903130E-02
  0.414062500       8.59375000E-02 -0.173595846       3.10484469E-02   1.80261917E-02