 VARIABLES="X","Y","U","V","P"
 ZONE F=POINT, I=          32 , J=          32
   1.56250000E-02   1.56250000E-02   3.98134405E-04  -3.98271106E-04   1.57039240E-02
   4.68750000E-02   1.56250000E-02   1.28949073E-03  -4.93406551E-04   1.56648941E-02
   7.81250000E-02   1.56250000E-02   2.03044293E-03  -2.47910502E-04   1.55283511E-02
  0.109375000       1.56250000E-02   2.19245441E-03   8.55433973E-05   1.53171718E-02
  0.140625000       1.56250000E-02   1.68898562E-03   4.17581701E-04   1.50499791E-02
  0.171875000       1.56250000E-02   5.40235953E-04   7.30839965E-04   1.47388875E-02
  0.203125000       1.56250000E-02  -1.22887944E-03   1.03796669E-03   1.43895298E-02
  0.234375000       1.56250000E-02  -3.61699285E-03   1.34985999E-03   1.40092336E-02
  0.265625000       1.56250000E-02  -6.63323235E-03   1.66611513E-03   1.36121307E-02
  0.296875000       1.56250000E-02  -1.02714719E-02   1.97188277E-03   1.32193007E-02
  0.328125000       1.56250000E-02  -1.44869434E-02   2.24337075E-03   1.28598195E-02
  0.359375000       1.56250000E-02  -1.91824678E-02   2.45195697E-03   1.25697711E-02
  0.390625000       1.56250000E-02  -2.42024604E-02   2.56785611E-03   1.23901526E-02
  0.421875000       1.56250000E-02  -2.93340329E-02   2.56355433E-03   1.23638110E-02
  0.453125000       1.56250000E-02  -3.43144760E-02   2.41673505E-03   1.25316018E-02
  0.484375000       1.56250000E-02  -3.88435274E-02   2.11217348E-03   1.29277343E-02
  0.515625000       1.56250000E-02  -4.25986536E-02   1.64279772E-03   1.35747194E-02
  0.546875000       1.56250000E-02  -4.52521518E-02   1.01053179E-03   1.44776162E-02
  0.578125000       1.56250000E-02  -4.64926586E-02   2.29786572E-04   1.56179424E-02
  0.609375000       1.56250000E-02  -4.60692644E-02  -6.53406663E-04   1.69227384E-02
  0.640625000       1.56250000E-02  -4.37160432E-02  -1.70008256E-03   1.82623249E-02
  0.671875000       1.56250000E-02  -3.92283611E-02  -2.78790481E-03   1.95217691E-02
  0.703125000       1.56250000E-02  -3.26721519E-02  -3.76864313E-03   2.05643848E-02
  0.734375000       1.56250000E-02  -2.44276822E-02  -4.47619427E-03   2.12593898E-02
  0.765625000       1.56250000E-02  -1.52224209E-02  -4.72945115E-03   2.15170775E-02
  0.796875000       1.56250000E-02  -6.14051893E-03  -4.35283873E-03   2.13268027E-02
  0.828125000       1.56250000E-02   1.43682037E-03  -3.22487438E-03   2.07907408E-02
  0.859375000       1.56250000E-02   6.15098048E-03  -1.48963835E-03   2.00922303E-02
  0.890625000       1.56250000E-02   7.48274289E-03   1.57545641E-04   1.94281712E-02
  0.921875000       1.56250000E-02   6.10275101E-03   1.22213410E-03   1.89496707E-02
  0.953125000       1.56250000E-02   3.32857063E-03   1.55174627E-03   1.87056232E-02
  0.984375000       1.56250000E-02   8.88338196E-04   8.88244074E-04   1.86869968E-02
   1.56250000E-02   4.68750000E-02   4.93262778E-04  -1.28999015E-03   1.57415420E-02
   4.68750000E-02   4.68750000E-02   1.30496942E-03  -1.30548701E-03   1.56973694E-02
   7.81250000E-02   4.68750000E-02   1.28756533E-03  -1.60201729E-04   1.55707151E-02
  0.109375000       4.68750000E-02  -2.06298719E-04   1.32888183E-03   1.53846610E-02
  0.140625000       4.68750000E-02  -3.33871949E-03   2.80935504E-03   1.51490513E-02
  0.171875000       4.68750000E-02  -8.06171075E-03   4.21006419E-03   1.48698539E-02
  0.203125000       4.68750000E-02  -1.42800575E-02   5.54550439E-03   1.45494249E-02
  0.234375000       4.68750000E-02  -2.18677204E-02   6.81744469E-03   1.41926399E-02
  0.265625000       4.68750000E-02  -3.06435302E-02   7.98997749E-03   1.38105061E-02
  0.296875000       4.68750000E-02  -4.03515287E-02   8.99370760E-03   1.34217460E-02
  0.328125000       4.68750000E-02  -5.06598912E-02   9.74488258E-03   1.30535597E-02
  0.359375000       4.68750000E-02  -6.11735731E-02   1.01592056E-02   1.27411587E-02
  0.390625000       4.68750000E-02  -7.14544505E-02   1.01610739E-02   1.25258230E-02
  0.421875000       4.68750000E-02  -8.10428783E-02   9.68996435E-03   1.24519859E-02
  0.453125000       4.68750000E-02  -8.94773230E-02   8.70486349E-03   1.25630628E-02
  0.484375000       4.68750000E-02  -9.63111371E-02   7.18658976E-03   1.28966393E-02
  0.515625000       4.68750000E-02 -0.101126581       5.13861189E-03   1.34791136E-02
  0.546875000       4.68750000E-02 -0.103546485       2.58775102E-03   1.43201528E-02
  0.578125000       4.68750000E-02 -0.103242308      -4.11511806E-04   1.54084153E-02
  0.609375000       4.68750000E-02  -9.98702571E-02  -3.80805181E-03   1.66255627E-02
  0.640625000       4.68750000E-02  -9.32608694E-02  -7.50863086E-03   1.79013126E-02
  0.671875000       4.68750000E-02  -8.35498348E-02  -1.11787515E-02   1.91112533E-02
  0.703125000       4.68750000E-02  -7.10699558E-02  -1.44146383E-02   2.01191083E-02
  0.734375000       4.68750000E-02  -5.63957244E-02  -1.67497005E-02   2.07977612E-02
  0.765625000       4.68750000E-02  -4.03990224E-02  -1.76587552E-02   2.10622307E-02
  0.796875000       4.68750000E-02  -2.43007038E-02  -1.66046098E-02   2.09066011E-02
  0.828125000       4.68750000E-02  -9.67783760E-03  -1.31741352E-02   2.04288326E-02
  0.859375000       4.68750000E-02   1.57998770E-03  -7.51314731E-03   1.98208485E-02
  0.890625000       4.68750000E-02   7.60197826E-03  -1.17343664E-03   1.92593150E-02
  0.921875000       4.68750000E-02   8.15344602E-03   3.38093797E-03   1.88637525E-02
  0.953125000       4.68750000E-02   5.15890960E-03   5.16098225E-03   1.86654460E-02
  0.984375000       4.68750000E-02   1.55061670E-03   3.32697365E-03   1.86597016E-02
   1.56250000E-02   7.81250000E-02   1.04023624E-04  -1.88765081E-03   1.58855505E-02
   4.68750000E-02   7.81250000E-02  -4.38922201E-04  -9.77427117E-04   1.58131775E-02
   7.81250000E-02   7.81250000E-02  -2.81345751E-03   1.90275349E-03   1.56800561E-02
  0.109375000       7.81250000E-02  -7.36759324E-03   5.31302206E-03   1.55011723E-02
  0.140625000       7.81250000E-02  -1.40562709E-02   8.64544138E-03   1.52798928E-02
  0.171875000       7.81250000E-02  -2.27065571E-02   1.17464215E-02   1.50124300E-02
  0.203125000       7.81250000E-02  -3.30625363E-02   1.45826861E-02   1.46944178E-02
  0.234375000       7.81250000E-02  -4.47946899E-02   1.70993414E-02   1.43260490E-02
  0.265625000       7.81250000E-02  -5.75052127E-02   1.91937406E-02   1.39153963E-02
  0.296875000       7.81250000E-02  -7.07430989E-02   2.07352228E-02   1.34801473E-02
  0.328125000       7.81250000E-02  -8.40248615E-02   2.15929262E-02   1.30481366E-02
  0.359375000       7.81250000E-02  -9.68549401E-02   2.16544382E-02   1.26568358E-02
  0.390625000       7.81250000E-02 -0.108744204       2.08355393E-02   1.23512419E-02
  0.421875000       7.81250000E-02 -0.119225308       1.90846343E-02   1.21806245E-02
  0.453125000       7.81250000E-02 -0.127865151       1.63841285E-02   1.21939592E-02
  0.484375000       7.81250000E-02 -0.134274036       1.27496915E-02   1.24344304E-02
  0.515625000       7.81250000E-02 -0.138111770       8.22834112E-03   1.29337125E-02
  0.546875000       7.81250000E-02 -0.139090076       2.89586885E-03   1.37061831E-02
  0.578125000       7.81250000E-02 -0.136968762      -3.14554106E-03   1.47175882E-02
  0.609375000       7.81250000E-02 -0.131616175      -9.79914796E-03   1.58867724E-02
  0.640625000       7.81250000E-02 -0.123076320      -1.66673735E-02   1.71427839E-02
  0.671875000       7.81250000E-02 -0.111532129      -2.32759267E-02   1.83608681E-02
  0.703125000       7.81250000E-02  -9.72848535E-02  -2.90454067E-02   1.94034986E-02
  0.734375000       7.81250000E-02  -8.08005929E-02  -3.32782716E-02   2.01409459E-02
  0.765625000       7.81250000E-02  -6.27700984E-02  -3.51582803E-02   2.04824023E-02
  0.796875000       7.81250000E-02  -4.41724062E-02  -3.38019952E-02   2.04116013E-02
  0.828125000       7.81250000E-02  -2.63314079E-02  -2.84414962E-02   2.00127959E-02
  0.859375000       7.81250000E-02  -1.09307040E-02  -1.89051554E-02   1.94625203E-02
  0.890625000       7.81250000E-02   3.47718596E-05  -6.76969346E-03   1.89496689E-02
  0.921875000       7.81250000E-02   4.73817810E-03   3.72155663E-03   1.85823962E-02
  0.953125000       7.81250000E-02   4.00447100E-03   8.54786672E-03   1.84112750E-02
  0.984375000       7.81250000E-02   1.33744790E-03   6.21478073E-03   1.84049867E-02
   1.56250000E-02  0.109375000      -6.27154193E-04  -1.36490550E-03   1.61159504E-02
   4.68750000E-02  0.109375000      -3.36865499E-03   1.78341148E-03   1.59941409E-02
   7.81250000E-02  0.109375000      -8.91584344E-03   7.06269545E-03   1.58383735E-02
  0.109375000      0.109375000      -1.69160850E-02   1.27065405E-02   1.56468973E-02
  0.140625000      0.109375000      -2.70253271E-02   1.80489533E-02   1.54106617E-02
  0.171875000      0.109375000      -3.89109291E-02   2.28779539E-02   1.51168779E-02
  0.203125000      0.109375000      -5.21964431E-02   2.70918496E-02   1.47548728E-02
  0.234375000      0.109375000      -6.64466619E-02   3.05718072E-02   1.43211782E-02
  0.265625000      0.109375000      -8.11845660E-02   3.31690386E-02   1.38227865E-02
  0.296875000      0.109375000      -9.59166363E-02   3.47292945E-02   1.32788578E-02
  0.328125000      0.109375000     -0.110154904       3.51183489E-02   1.27209947E-02
  0.359375000      0.109375000     -0.123433530       3.42372693E-02   1.21919578E-02
  0.390625000      0.109375000     -0.135321051       3.20290849E-02   1.17432643E-02
  0.421875000      0.109375000     -0.145429343       2.84801498E-02   1.14308540E-02
  0.453125000      0.109375000     -0.153419733       2.36185938E-02   1.13099767E-02
  0.484375000      0.109375000     -0.159006596       1.75107196E-02   1.14290332E-02
  0.515625000      0.109375000     -0.161958128       1.02563174E-02   1.18232202E-02
  0.546875000      0.109375000     -0.162094533       1.98234012E-03   1.25083430E-02
  0.578125000      0.109375000     -0.159281731      -7.16646621E-03   1.34379501E-02
  0.609375000      0.109375000     -0.153491080      -1.69218592E-02   1.45790679E-02
  0.640625000      0.109375000     -0.144775301      -2.68007740E-02   1.58435442E-02
  0.671875000      0.109375000     -0.133218944      -3.62436399E-02   1.71123073E-02
  0.703125000      0.109375000     -0.118993446      -4.45511416E-02   1.82492957E-02
  0.734375000      0.109375000     -0.102396213      -5.08547872E-02   1.91212147E-02
  0.765625000      0.109375000      -8.39027613E-02  -5.41065186E-02   1.96261611E-02
  0.796875000      0.109375000      -6.42318949E-02  -5.31231388E-02   1.97267849E-02
  0.828125000      0.109375000      -4.44251150E-02  -4.67689484E-02   1.94772370E-02
  0.859375000      0.109375000      -2.59457771E-02  -3.44585329E-02   1.90229081E-02
  0.890625000      0.109375000      -1.07987402E-02  -1.73295941E-02   1.85497701E-02
  0.921875000      0.109375000      -1.27397268E-03   5.25499927E-05   1.81961358E-02
  0.953125000      0.109375000       1.72844413E-03   9.94745083E-03   1.79929230E-02
  0.984375000      0.109375000       8.29040771E-04   8.38102307E-03   1.79515481E-02
   1.56250000E-02  0.140625000      -1.55163696E-03   8.13485007E-04   1.63811762E-02
   4.68750000E-02  0.140625000      -6.76648831E-03   7.56047852E-03   1.62012894E-02
   7.81250000E-02  0.140625000      -1.54620791E-02   1.55274346E-02   1.60090961E-02
  0.109375000      0.140625000      -2.65076309E-02   2.32866555E-02   1.57783162E-02
  0.140625000      0.140625000      -3.92929241E-02   3.03624682E-02   1.54874697E-02
  0.171875000      0.140625000      -5.34019843E-02   3.65582444E-02   1.51173268E-02
  0.203125000      0.140625000      -6.84296191E-02   4.17238995E-02   1.46540776E-02
  0.234375000      0.140625000      -8.39381739E-02   4.56978157E-02   1.40937800E-02
  0.265625000      0.140625000      -9.94719565E-02   4.83140908E-02   1.34455543E-02
  0.296875000      0.140625000     -0.114581421       4.94252443E-02   1.27329137E-02
  0.328125000      0.140625000     -0.128842250       4.89210486E-02   1.19936336E-02
  0.359375000      0.140625000     -0.141867667       4.67382297E-02   1.12776402E-02
  0.390625000      0.140625000     -0.153315604       4.28632796E-02   1.06435632E-02
  0.421875000      0.140625000     -0.162892133       3.73305380E-02   1.01539139E-02
  0.453125000      0.140625000     -0.170351624       3.02179568E-02   9.86909773E-03
  0.484375000      0.140625000     -0.175494879       2.16413364E-02   9.84089356E-03
  0.515625000      0.140625000     -0.178165570       1.17478222E-02   1.01057971E-02
  0.546875000      0.140625000     -0.178247184       7.08720007E-04   1.06779523E-02
  0.578125000      0.140625000     -0.175663978      -1.12890564E-02   1.15305167E-02
  0.609375000      0.140625000     -0.170369372      -2.38847844E-02   1.26420902E-02
  0.640625000      0.140625000     -0.162331134      -3.65921967E-02   1.39296846E-02
  0.671875000      0.140625000     -0.151543796      -4.87963408E-02   1.52809937E-02
  0.703125000      0.140625000     -0.138055295      -5.97129948E-02   1.65636577E-02
  0.734375000      0.140625000     -0.121999398      -6.83466792E-02   1.76414512E-02
  0.765625000      0.140625000     -0.103643693      -7.34644532E-02   1.83983762E-02
  0.796875000      0.140625000      -8.34590197E-02  -7.36214593E-02   1.87683124E-02
  0.828125000      0.140625000      -6.22209311E-02  -6.73162341E-02   1.87624246E-02
  0.859375000      0.140625000      -4.11634073E-02  -5.34488373E-02   1.84790045E-02
  0.890625000      0.140625000      -2.22023353E-02  -3.24481167E-02   1.80768818E-02
  0.921875000      0.140625000      -8.02750420E-03  -8.52922257E-03   1.77043565E-02
  0.953125000      0.140625000      -9.68194567E-04   8.46681744E-03   1.74442660E-02
  0.984375000      0.140625000       2.91232602E-04   9.50106326E-03   1.73401181E-02
   1.56250000E-02  0.171875000      -2.44913949E-03   4.81384434E-03   1.66038647E-02
   4.68750000E-02  0.171875000      -9.90555994E-03   1.62304603E-02   1.63653325E-02
   7.81250000E-02  0.171875000      -2.12065261E-02   2.68530045E-02   1.61233637E-02
  0.109375000      0.171875000      -3.45518664E-02   3.63510177E-02   1.58246551E-02
  0.140625000      0.171875000      -4.91665378E-02   4.46971580E-02   1.54379746E-02
  0.171875000      0.171875000      -6.46166056E-02   5.17818332E-02   1.49417687E-02
  0.203125000      0.171875000      -8.05240870E-02   5.74346408E-02   1.43232252E-02
  0.234375000      0.171875000      -9.65015069E-02   6.14723712E-02   1.35815749E-02
  0.265625000      0.171875000     -0.112159379       6.37306347E-02   1.27309421E-02
  0.296875000      0.171875000     -0.127125800       6.40841424E-02   1.18013378E-02
  0.328125000      0.171875000     -0.141061127       6.24579787E-02   1.08376890E-02
  0.359375000      0.171875000     -0.153665900       5.88312335E-02   9.89724137E-03
  0.390625000      0.171875000     -0.164683059       5.32352254E-02   9.04505048E-03
  0.421875000      0.171875000     -0.173896432       4.57484201E-02   8.34895298E-03
  0.453125000      0.171875000     -0.181126475       3.64896283E-02   7.87317008E-03
  0.484375000      0.171875000     -0.186224803       2.56112665E-02   7.67175946E-03
  0.515625000      0.171875000     -0.189069510       1.32933352E-02   7.78193306E-03
  0.546875000      0.171875000     -0.189563379      -2.61281093E-04   8.21726676E-03
  0.578125000      0.171875000     -0.187636435      -1.48292072E-02   8.97852983E-03
  0.609375000      0.171875000     -0.183217645      -3.00581008E-02   1.00528663E-02
  0.640625000      0.171875000     -0.176221564      -4.54533622E-02   1.13678603E-02
  0.671875000      0.171875000     -0.166568875      -6.03754707E-02   1.28212823E-02
  0.703125000      0.171875000     -0.154197067      -7.39945471E-02   1.42873954E-02
  0.734375000      0.171875000     -0.139084935      -8.52335989E-02   1.56286359E-02
  0.765625000      0.171875000     -0.121297754      -9.27209556E-02   1.67142190E-02
  0.796875000      0.171875000     -0.101062566      -9.47854146E-02   1.74448527E-02
  0.828125000      0.171875000      -7.88895190E-02  -8.95640701E-02   1.77796707E-02
  0.859375000      0.171875000      -5.57680875E-02  -7.53806233E-02   1.77551135E-02
  0.890625000      0.171875000      -3.34806293E-02  -5.17655313E-02   1.74834877E-02
  0.921875000      0.171875000      -1.49700679E-02  -2.18978561E-02   1.71153676E-02
  0.953125000      0.171875000      -3.74906766E-03   3.55450017E-03   1.67759079E-02
  0.984375000      0.171875000      -1.93863714E-04   9.59821418E-03   1.65841132E-02
   1.56250000E-02  0.203125000      -3.16169392E-03   1.04242461E-02   1.66865326E-02
   4.68750000E-02  0.203125000      -1.23118451E-02   2.72256732E-02   1.63964443E-02
   7.81250000E-02  0.203125000      -2.54539698E-02   4.02998552E-02   1.60942059E-02
  0.109375000      0.203125000      -4.03087251E-02   5.11032864E-02   1.57035049E-02
  0.140625000      0.203125000      -5.60040064E-02   6.02539256E-02   1.51877254E-02
  0.171875000      0.203125000      -7.21158013E-02   6.77860975E-02   1.45267779E-02
  0.203125000      0.203125000      -8.83136541E-02   7.35349655E-02   1.37122851E-02
  0.234375000      0.203125000     -0.104276948       7.73121342E-02   1.27493916E-02
  0.265625000      0.203125000     -0.119693741       7.89650679E-02   1.16591286E-02
  0.296875000      0.203125000     -0.134273887       7.83959329E-02   1.04788402E-02
  0.328125000      0.203125000     -0.147758484       7.55659118E-02   9.26066749E-03
  0.359375000      0.203125000     -0.159923375       7.04928637E-02   8.06834642E-03
  0.390625000      0.203125000     -0.170577586       6.32449910E-02   6.97242422E-03
  0.421875000      0.203125000     -0.179558739       5.39333075E-02   6.04499551E-03
  0.453125000      0.203125000     -0.186727345       4.27035950E-02   5.35340002E-03
  0.484375000      0.203125000     -0.191961959       2.97304559E-02   4.95400000E-03
  0.515625000      0.203125000     -0.195156813       1.52139161E-02   4.88561625E-03
  0.546875000      0.203125000     -0.196223602      -6.21004088E-04   5.16336877E-03
  0.578125000      0.203125000     -0.195097446      -1.75223686E-02   5.81262168E-03
  0.609375000      0.203125000     -0.191704959      -3.51761058E-02   6.83531351E-03
  0.640625000      0.203125000     -0.185937583      -5.30987531E-02   8.17117002E-03
  0.671875000      0.203125000     -0.177659720      -7.06607029E-02   9.73069109E-03
  0.703125000      0.203125000     -0.166710600      -8.70304108E-02   1.13978032E-02
  0.734375000      0.203125000     -0.152922153     -0.101098552       1.30368285E-02
  0.765625000      0.203125000     -0.136162490     -0.111403212       1.45042147E-02
  0.796875000      0.203125000     -0.116416469     -0.116084814       1.56674683E-02
  0.828125000      0.203125000      -9.39225852E-02 -0.112932131       1.64292082E-02
  0.859375000      0.203125000      -6.94001019E-02  -9.96570513E-02   1.67537108E-02
  0.890625000      0.203125000      -4.44258004E-02  -7.47514814E-02   1.66886058E-02
  0.921875000      0.203125000      -2.19959430E-02  -3.98529395E-02   1.63670033E-02
  0.953125000      0.203125000      -6.58741780E-03  -5.12054376E-03   1.59645546E-02
  0.984375000      0.203125000      -6.37005316E-04   8.76714289E-03   1.56624895E-02
   1.56250000E-02  0.234375000      -3.60078597E-03   1.71862878E-02   1.65394600E-02
   4.68750000E-02  0.234375000      -1.37699079E-02   3.97819355E-02   1.62085891E-02
   7.81250000E-02  0.234375000      -2.79685557E-02   5.50833270E-02   1.58405155E-02
  0.109375000      0.234375000      -4.36122194E-02   6.68172613E-02   1.53429788E-02
  0.140625000      0.234375000      -5.97634688E-02   7.63855875E-02   1.46779735E-02
  0.171875000      0.234375000      -7.60122389E-02   8.40142071E-02   1.38295647E-02
  0.203125000      0.234375000      -9.20756608E-02   8.95674825E-02   1.27957165E-02
  0.234375000      0.234375000     -0.107697517       9.28642750E-02   1.15889981E-02
  0.265625000      0.234375000     -0.122636974       9.37688425E-02   1.02380812E-02
  0.296875000      0.234375000     -0.136674732       9.22099054E-02   8.78777914E-03
  0.328125000      0.234375000     -0.149617642       8.81794244E-02   7.29696453E-03
  0.359375000      0.234375000     -0.161298692       8.17253590E-02   5.83507493E-03
  0.390625000      0.234375000     -0.171573848       7.29420483E-02   4.47747065E-03
  0.421875000      0.234375000     -0.180317461       6.19613305E-02   3.30007914E-03
  0.453125000      0.234375000     -0.187418267       4.89453599E-02   2.37352378E-03
  0.484375000      0.234375000     -0.192777380       3.40828225E-02   1.75712421E-03
  0.515625000      0.234375000     -0.196309060       1.75885260E-02   1.49281113E-03
  0.546875000      0.234375000     -0.197944015      -2.93482299E-04   1.59915071E-03
  0.578125000      0.234375000     -0.197635233      -1.92844383E-02   2.11659027E-03
  0.609375000      0.234375000     -0.195325375      -3.91160399E-02   3.06897191E-03
  0.640625000      0.234375000     -0.190904111      -5.93472049E-02   4.40863054E-03
  0.671875000      0.234375000     -0.184196085      -7.93979764E-02   6.06054766E-03
  0.703125000      0.234375000     -0.174955487      -9.84828025E-02   7.92183168E-03
  0.734375000      0.234375000     -0.162877902     -0.115512252       9.86317731E-03
  0.765625000      0.234375000     -0.147641510     -0.128985748       1.17335748E-02
  0.796875000      0.234375000     -0.128991038     -0.136899039       1.33717190E-02
  0.828125000      0.234375000     -0.106885575     -0.136717647       1.46252047E-02
  0.859375000      0.234375000      -8.17468688E-02 -0.125533193       1.53807681E-02
  0.890625000      0.234375000      -5.48765659E-02 -0.100720465       1.56052336E-02
  0.921875000      0.234375000      -2.91464701E-02  -6.20444417E-02   1.53878760E-02
  0.953125000      0.234375000      -9.70939174E-03  -1.77751929E-02   1.49377938E-02
  0.984375000      0.234375000      -1.18421076E-03   6.94574276E-03   1.45239942E-02
   1.56250000E-02  0.265625000      -3.74501641E-03   2.45316550E-02   1.60992593E-02
   4.68750000E-02  0.265625000      -1.42577533E-02   5.31174690E-02   1.57404821E-02
   7.81250000E-02  0.265625000      -2.87926309E-02   7.04803020E-02   1.53069496E-02
  0.109375000      0.265625000      -4.45996411E-02   8.28700215E-02   1.46980565E-02
  0.140625000      0.265625000      -6.06859401E-02   9.25695449E-02   1.38775054E-02
  0.171875000      0.265625000      -7.66476840E-02  0.100040071       1.28347380E-02
  0.203125000      0.265625000      -9.22401845E-02  0.105197005       1.15747862E-02
  0.234375000      0.265625000     -0.107260019      0.107876062       1.01179918E-02
  0.265625000      0.265625000     -0.121523350      0.107959636       8.50069616E-03
  0.296875000      0.265625000     -0.134865567      0.105399087       6.77476311E-03
  0.328125000      0.265625000     -0.147142157      0.100209899       5.00533637E-03
  0.359375000      0.265625000     -0.158227220       9.24612582E-02   3.26717296E-03
  0.390625000      0.265625000     -0.168010771       8.22652578E-02   1.64024241E-03
  0.421875000      0.265625000     -0.176396668       6.97681531E-02   2.04361480E-04
  0.453125000      0.265625000     -0.183301821       5.51450923E-02  -9.66077205E-04
  0.484375000      0.265625000     -0.188657209       3.85981910E-02  -1.80799572E-03
  0.515625000      0.265625000     -0.192409515       2.03577671E-02  -2.27535167E-03
  0.546875000      0.265625000     -0.194522902       6.86214655E-04  -2.34475033E-03
  0.578125000      0.265625000     -0.194979489      -2.01157629E-02  -1.97306578E-03
  0.609375000      0.265625000     -0.193750992      -4.18225601E-02  -1.11042778E-03
  0.640625000      0.265625000     -0.190743059      -6.40694574E-02   2.07530626E-04
  0.671875000      0.265625000     -0.185758039      -8.63684118E-02   1.92143174E-03
  0.703125000      0.265625000     -0.178481176     -0.108029589       3.94484727E-03
  0.734375000      0.265625000     -0.168485612     -0.128038496       6.16070535E-03
  0.765625000      0.265625000     -0.155269772     -0.144911781       8.41869134E-03
  0.796875000      0.265625000     -0.138341665     -0.156551689       1.05376160E-02
  0.828125000      0.265625000     -0.117373526     -0.160138845       1.23171797E-02
  0.859375000      0.265625000      -9.24647078E-02 -0.152159870       1.35673480E-02
  0.890625000      0.265625000      -6.45869374E-02 -0.128842279       1.41628217E-02
  0.921875000      0.265625000      -3.63541134E-02  -8.78859907E-02   1.41228847E-02
  0.953125000      0.265625000      -1.31809944E-02  -3.45443189E-02   1.36677967E-02
  0.984375000      0.265625000      -1.87653955E-03   3.88483028E-03   1.31391622E-02
   1.56250000E-02  0.296875000      -3.61625338E-03   3.18925083E-02   1.53401215E-02
   4.68750000E-02  0.296875000      -1.38635170E-02   6.65156990E-02   1.49670448E-02
   7.81250000E-02  0.296875000      -2.81066298E-02   8.58591124E-02   1.44736655E-02
  0.109375000      0.296875000      -4.35437374E-02   9.87344831E-02   1.37578305E-02
  0.140625000      0.296875000      -5.91265596E-02  0.108373463       1.27869770E-02
  0.171875000      0.296875000      -7.44447485E-02  0.115515485       1.15562733E-02
  0.203125000      0.296875000      -8.92787650E-02  0.120147698       1.00776171E-02
  0.234375000      0.296875000     -0.103463814      0.122130021       8.37857090E-03
  0.265625000      0.296875000     -0.116857655      0.121362790       6.50280388E-03
  0.296875000      0.296875000     -0.129334688      0.117815338       4.50874632E-03
  0.328125000      0.296875000     -0.140784487      0.111520380       2.46751541E-03
  0.359375000      0.296875000     -0.151110649      0.102562472       4.59062343E-04
  0.390625000      0.296875000     -0.160230428       9.10679474E-02  -1.43203069E-03
  0.421875000      0.296875000     -0.168075860       7.71974772E-02  -3.12165590E-03
  0.453125000      0.296875000     -0.174596608       6.11424483E-02  -4.53132857E-03
  0.484375000      0.296875000     -0.179762781       4.31231707E-02  -5.59394434E-03
  0.515625000      0.296875000     -0.183565781       2.33888552E-02  -6.25888165E-03
  0.546875000      0.296875000     -0.186015427       2.21893168E-03  -6.49743667E-03
  0.578125000      0.296875000     -0.187133327      -2.00732462E-02  -6.27616514E-03
  0.609375000      0.296875000     -0.186931193      -4.32950705E-02  -5.51978825E-03
  0.640625000      0.296875000     -0.185346395      -6.71890900E-02  -4.25356580E-03
  0.671875000      0.296875000     -0.182178617      -9.14010853E-02  -2.52108090E-03
  0.703125000      0.296875000     -0.177064389     -0.115387633      -3.89350142E-04
  0.734375000      0.296875000     -0.169473112     -0.138267010       2.04304676E-03
  0.765625000      0.296875000     -0.158737183     -0.158634901       4.63636452E-03
  0.796875000      0.296875000     -0.144133568     -0.174360275       7.20199104E-03
  0.828125000      0.296875000     -0.125040859     -0.182391226       9.50452220E-03
  0.859375000      0.296875000     -0.101212092     -0.178645313       1.12844557E-02
  0.890625000      0.296875000      -7.32396394E-02 -0.158207387       1.23188272E-02
  0.921875000      0.296875000      -4.33764085E-02 -0.116617322       1.25322873E-02
  0.953125000      0.296875000      -1.69858355E-02  -5.53770736E-02   1.21207368E-02
  0.984375000      0.296875000      -2.79059610E-03  -7.82441930E-04   1.14909746E-02
   1.56250000E-02  0.328125000      -3.25876009E-03   3.87671478E-02   1.42751522E-02
   4.68750000E-02  0.328125000      -1.27271907E-02   7.93559402E-02   1.39009142E-02
   7.81250000E-02  0.328125000      -2.61478685E-02  0.100681812       1.33569948E-02
  0.109375000      0.328125000      -4.07661870E-02  0.113966450       1.25451386E-02
  0.140625000      0.328125000      -5.54758832E-02  0.123433396       1.14377830E-02
  0.171875000      0.328125000      -6.98461682E-02  0.130143553       1.00356154E-02
  0.203125000      0.328125000      -8.36693645E-02  0.134176567       8.35654885E-03
  0.234375000      0.328125000      -9.68061686E-02  0.135422960       6.43477635E-03
  0.265625000      0.328125000     -0.109142624      0.133800298       4.32036631E-03
  0.296875000      0.328125000     -0.120579667      0.129292235       2.07798928E-03
  0.328125000      0.328125000     -0.131030515      0.121944621      -2.15579334E-04
  0.359375000      0.328125000     -0.140420735      0.111855254      -2.47507915E-03
  0.390625000      0.328125000     -0.148690686       9.91656631E-02  -4.61116619E-03
  0.421875000      0.328125000     -0.155800447       8.40557963E-02  -6.53524417E-03
  0.453125000      0.328125000     -0.161735564       6.67408779E-02  -8.16493109E-03
  0.484375000      0.328125000     -0.166511238       4.74675149E-02  -9.42922849E-03
  0.515625000      0.328125000     -0.170171678       2.65088920E-02  -1.02736726E-02
  0.546875000      0.328125000     -0.172781974       4.15974250E-03  -1.06646335E-02
  0.578125000      0.328125000     -0.174412310      -1.92649513E-02  -1.05863735E-02
  0.609375000      0.328125000     -0.175124243      -4.35927883E-02  -9.94600821E-03
  0.640625000      0.328125000     -0.174902618      -6.86970949E-02  -8.76091328E-03
  0.671875000      0.328125000     -0.173566729      -9.43961591E-02  -7.05983303E-03
  0.703125000      0.328125000     -0.170729920     -0.120343059      -4.88861278E-03
  0.734375000      0.328125000     -0.165782779     -0.145849586      -2.32162187E-03
  0.765625000      0.328125000     -0.157911256     -0.169659436       5.22125571E-04
  0.796875000      0.328125000     -0.146170706     -0.189679742       3.46173788E-03
  0.828125000      0.328125000     -0.129641771     -0.202693373       6.24349480E-03