 VARIABLES="X","Y","U","V","P"
 ZONE F=POINT, I=          64 , J=          64
   7.81250000E-03   7.81250000E-03   2.67317910E-06  -2.89172135E-06   4.85202717E-03
   2.34375000E-02   7.81250000E-03  -8.54690734E-06   1.35986056E-05   4.84749395E-03
   3.90625000E-02   7.81250000E-03  -5.44631730E-05   3.17289850E-05   4.84215282E-03
   5.46875000E-02   7.81250000E-03  -1.32941714E-04   4.61623458E-05   4.83897887E-03
   7.03125000E-02   7.81250000E-03  -2.35953223E-04   5.62638561E-05   4.83970158E-03
   8.59375000E-02   7.81250000E-03  -3.55514057E-04   6.27138506E-05   4.84519545E-03
  0.101562500       7.81250000E-03  -4.85252705E-04   6.64440959E-05   4.85582463E-03
  0.117187500       7.81250000E-03  -6.20573352E-04   6.82979298E-05   4.87167435E-03
  0.132812500       7.81250000E-03  -7.58392795E-04   6.89443332E-05   4.89269383E-03
  0.148437500       7.81250000E-03  -8.96771438E-04   6.88582877E-05   4.91877506E-03
  0.164062500       7.81250000E-03  -1.03455642E-03   6.83519975E-05   4.94979043E-03
  0.179687500       7.81250000E-03  -1.17109204E-03   6.76104028E-05   4.98562539E-03
  0.195312500       7.81250000E-03  -1.30600110E-03   6.67276836E-05   5.02618263E-03
  0.210937500       7.81250000E-03  -1.43904041E-03   6.57427227E-05   5.07138064E-03
  0.226562500       7.81250000E-03  -1.57001195E-03   6.46622211E-05   5.12115378E-03
  0.242187500       7.81250000E-03  -1.69872376E-03   6.34853714E-05   5.17543126E-03
  0.257812500       7.81250000E-03  -1.82496454E-03   6.21940635E-05   5.23414742E-03
  0.273437500       7.81250000E-03  -1.94848736E-03   6.07708207E-05   5.29724499E-03
  0.289062500       7.81250000E-03  -2.06901552E-03   5.92030447E-05   5.36465412E-03
  0.304687500       7.81250000E-03  -2.18624342E-03   5.74743681E-05   5.43629099E-03
  0.320312500       7.81250000E-03  -2.29983777E-03   5.55733604E-05   5.51205594E-03
  0.335937500       7.81250000E-03  -2.40943953E-03   5.34856699E-05   5.59186423E-03
  0.351562500       7.81250000E-03  -2.51466315E-03   5.11993640E-05   5.67557197E-03
  0.367187500       7.81250000E-03  -2.61509884E-03   4.87024699E-05   5.76305436E-03
  0.382812500       7.81250000E-03  -2.71031726E-03   4.59855219E-05   5.85415727E-03
  0.398437500       7.81250000E-03  -2.79987231E-03   4.30421533E-05   5.94871538E-03
  0.414062500       7.81250000E-03  -2.88330042E-03   3.98619450E-05   6.04652893E-03
  0.429687500       7.81250000E-03  -2.96011614E-03   3.64334919E-05   6.14739489E-03
  0.445312500       7.81250000E-03  -3.02981935E-03   3.27532944E-05   6.25104783E-03
  0.460937500       7.81250000E-03  -3.09190527E-03   2.88212668E-05   6.35723397E-03
  0.476562500       7.81250000E-03  -3.14586796E-03   2.46352502E-05   6.46567252E-03
  0.492187500       7.81250000E-03  -3.19120567E-03   2.02005394E-05   6.57605845E-03
  0.507812500       7.81250000E-03  -3.22741480E-03   1.55086782E-05   6.68805465E-03
  0.523437500       7.81250000E-03  -3.25400569E-03   1.05854506E-05   6.80131093E-03
  0.539062500       7.81250000E-03  -3.27051478E-03   5.43142414E-06   6.91542681E-03
  0.554687500       7.81250000E-03  -3.27650527E-03   7.08110335E-08   7.02997856E-03
  0.570312500       7.81250000E-03  -3.27157811E-03  -5.48148455E-06   7.14458013E-03
  0.585937500       7.81250000E-03  -3.25536239E-03  -1.12110474E-05   7.25874677E-03
  0.601562500       7.81250000E-03  -3.22754961E-03  -1.70726453E-05   7.37205520E-03
  0.617187500       7.81250000E-03  -3.18789016E-03  -2.30526675E-05   7.48401415E-03
  0.632812500       7.81250000E-03  -3.13619291E-03  -2.91053184E-05   7.59413699E-03
  0.648437500       7.81250000E-03  -3.07234470E-03  -3.51983253E-05   7.70194083E-03
  0.664062500       7.81250000E-03  -2.99630780E-03  -4.12885456E-05   7.80694932E-03
  0.679687500       7.81250000E-03  -2.90812878E-03  -4.73342043E-05   7.90866371E-03
  0.695312500       7.81250000E-03  -2.80794315E-03  -5.32890299E-05   8.00659973E-03
  0.710937500       7.81250000E-03  -2.69597396E-03  -5.91118187E-05   8.10029171E-03
  0.726562500       7.81250000E-03  -2.57253158E-03  -6.47565175E-05   8.18928983E-03
  0.742187500       7.81250000E-03  -2.43801298E-03  -7.01813624E-05   8.27316195E-03
  0.757812500       7.81250000E-03  -2.29290454E-03  -7.53391214E-05   8.35150667E-03
  0.773437500       7.81250000E-03  -2.13778485E-03  -8.01853967E-05   8.42396170E-03
  0.789062500       7.81250000E-03  -1.97333284E-03  -8.46654875E-05   8.49016756E-03
  0.804687500       7.81250000E-03  -1.80034433E-03  -8.87155984E-05   8.54980387E-03
  0.820312500       7.81250000E-03  -1.61977368E-03  -9.22413819E-05   8.60259682E-03
  0.835937500       7.81250000E-03  -1.43280451E-03  -9.51077018E-05   8.64829496E-03
  0.851562500       7.81250000E-03  -1.24096277E-03  -9.71074551E-05   8.68671387E-03
  0.867187500       7.81250000E-03  -1.04629202E-03  -9.79307442E-05   8.71770643E-03
  0.882812500       7.81250000E-03  -8.51584366E-04  -9.71390327E-05   8.74120556E-03
  0.898437500       7.81250000E-03  -6.60675345E-04  -9.41272156E-05   8.75725225E-03
  0.914062500       7.81250000E-03  -4.78794740E-04  -8.81061424E-05   8.76606070E-03
  0.929687500       7.81250000E-03  -3.12919554E-04  -7.81177005E-05   8.76811054E-03
  0.945312500       7.81250000E-03  -1.72011962E-04  -6.31350995E-05   8.76430795E-03
  0.960937500       7.81250000E-03  -6.67370041E-05  -4.24825012E-05   8.75624456E-03
  0.976562500       7.81250000E-03  -7.30688316E-06  -1.72886248E-05   8.74658395E-03
  0.992187500       7.81250000E-03   4.90578987E-06   4.79876417E-06   8.73953942E-03
   7.81250000E-03   2.34375000E-02  -1.39805879E-05   7.90200738E-06   4.85712942E-03
   2.34375000E-02   2.34375000E-02  -7.94470980E-05   7.83118303E-05   4.85257292E-03
   3.90625000E-02   2.34375000E-02  -2.19241570E-04   1.51395929E-04   4.84886905E-03
   5.46875000E-02   2.34375000E-02  -4.26575716E-04   2.10980725E-04   4.84763365E-03
   7.03125000E-02   2.34375000E-02  -6.87642139E-04   2.54200131E-04   4.85003646E-03
   8.59375000E-02   2.34375000E-02  -9.87508334E-04   2.82886147E-04   4.85678669E-03
  0.101562500       2.34375000E-02  -1.31303119E-03   3.00220272E-04   4.86825872E-03
  0.117187500       2.34375000E-02  -1.65388710E-03   3.09389870E-04   4.88461787E-03
  0.132812500       2.34375000E-02  -2.00258289E-03   3.13062395E-04   4.90589021E-03
  0.148437500       2.34375000E-02  -2.35400442E-03   3.13238706E-04   4.93204733E-03
  0.164062500       2.34375000E-02  -2.70483596E-03   3.11289594E-04   4.96301986E-03
  0.179687500       2.34375000E-02  -3.05298809E-03   3.08064802E-04   4.99873282E-03
  0.195312500       2.34375000E-02  -3.39711853E-03   3.04021582E-04   5.03912102E-03
  0.210937500       2.34375000E-02  -3.73631157E-03   2.99394887E-04   5.08410716E-03
  0.226562500       2.34375000E-02  -4.06985916E-03   2.94248399E-04   5.13363909E-03
  0.242187500       2.34375000E-02  -4.39711288E-03   2.88589683E-04   5.18764183E-03
  0.257812500       2.34375000E-02  -4.71742498E-03   2.82374211E-04   5.24605671E-03
  0.273437500       2.34375000E-02  -5.03011653E-03   2.75543804E-04   5.30882273E-03
  0.289062500       2.34375000E-02  -5.33445738E-03   2.68045493E-04   5.37587050E-03
  0.304687500       2.34375000E-02  -5.62966056E-03   2.59818655E-04   5.44711994E-03
  0.320312500       2.34375000E-02  -5.91488602E-03   2.50812649E-04   5.52246813E-03
  0.335937500       2.34375000E-02  -6.18923735E-03   2.40972266E-04   5.60182380E-03
  0.351562500       2.34375000E-02  -6.45176833E-03   2.30249687E-04   5.68504073E-03
  0.367187500       2.34375000E-02  -6.70148525E-03   2.18598274E-04   5.77199645E-03
  0.382812500       2.34375000E-02  -6.93735015E-03   2.05974051E-04   5.86254848E-03
  0.398437500       2.34375000E-02  -7.15828408E-03   1.92351072E-04   5.95650449E-03
  0.414062500       2.34375000E-02  -7.36318249E-03   1.77695343E-04   6.05369080E-03
  0.429687500       2.34375000E-02  -7.55090639E-03   1.61963020E-04   6.15388202E-03
  0.445312500       2.34375000E-02  -7.72028510E-03   1.45138125E-04   6.25682529E-03
  0.460937500       2.34375000E-02  -7.87013303E-03   1.27214182E-04   6.36226311E-03
  0.476562500       2.34375000E-02  -7.99929071E-03   1.08218068E-04   6.46989699E-03
  0.492187500       2.34375000E-02  -8.10659491E-03   8.81250235E-05   6.57946244E-03
  0.507812500       2.34375000E-02  -8.19089543E-03   6.69643487E-05   6.69059996E-03
  0.523437500       2.34375000E-02  -8.25109705E-03   4.48004794E-05   6.80294493E-03
  0.539062500       2.34375000E-02  -8.28614086E-03   2.16581993E-05   6.91611599E-03
  0.554687500       2.34375000E-02  -8.29503499E-03  -2.37297377E-06   7.02970335E-03
  0.570312500       2.34375000E-02  -8.27686489E-03  -2.72265297E-05   7.14330934E-03
  0.585937500       2.34375000E-02  -8.23083147E-03  -5.27912416E-05   7.25644687E-03
  0.601562500       2.34375000E-02  -8.15625675E-03  -7.89435726E-05   7.36870151E-03
  0.617187500       2.34375000E-02  -8.05258378E-03  -1.05565006E-04   7.47961551E-03
  0.632812500       2.34375000E-02  -7.91942514E-03  -1.32490255E-04   7.58866686E-03
  0.648437500       2.34375000E-02  -7.75654614E-03  -1.59566873E-04   7.69538060E-03
  0.664062500       2.34375000E-02  -7.56390439E-03  -1.86612699E-04   7.79930875E-03
  0.679687500       2.34375000E-02  -7.34164380E-03  -2.13450010E-04   7.89994281E-03
  0.695312500       2.34375000E-02  -7.09010102E-03  -2.39887479E-04   7.99680781E-03
  0.710937500       2.34375000E-02  -6.80982135E-03  -2.65735551E-04   8.08946881E-03
  0.726562500       2.34375000E-02  -6.50155637E-03  -2.90800701E-04   8.17744806E-03
  0.742187500       2.34375000E-02  -6.16627000E-03  -3.14887729E-04   8.26033391E-03
  0.757812500       2.34375000E-02  -5.80514036E-03  -3.37800418E-04   8.33773986E-03
  0.773437500       2.34375000E-02  -5.41957375E-03  -3.59324593E-04   8.40929616E-03
  0.789062500       2.34375000E-02  -5.01124142E-03  -3.79210396E-04   8.47466756E-03
  0.804687500       2.34375000E-02  -4.58213640E-03  -3.97149910E-04   8.53355415E-03
  0.820312500       2.34375000E-02  -4.13468201E-03  -4.12703346E-04   8.58568307E-03
  0.835937500       2.34375000E-02  -3.67191830E-03  -4.25234815E-04   8.63085221E-03
  0.851562500       2.34375000E-02  -3.19778360E-03  -4.33799054E-04   8.66891444E-03
  0.867187500       2.34375000E-02  -2.71749264E-03  -4.37030452E-04   8.69977195E-03
  0.882812500       2.34375000E-02  -2.23802729E-03  -4.33029025E-04   8.72345082E-03
  0.898437500       2.34375000E-02  -1.76870450E-03  -4.19274962E-04   8.74007866E-03
  0.914062500       2.34375000E-02  -1.32171717E-03  -3.92621994E-04   8.74997489E-03
  0.929687500       2.34375000E-02  -9.12487274E-04  -3.49493755E-04   8.75370018E-03
  0.945312500       2.34375000E-02  -5.59454202E-04  -2.86478782E-04   8.75217095E-03
  0.960937500       2.34375000E-02  -2.82605644E-04  -2.02035633E-04   8.74675438E-03
  0.976562500       2.34375000E-02  -9.94505826E-05  -1.01090249E-04   8.73935781E-03
  0.992187500       2.34375000E-02  -1.65757447E-05  -7.12900783E-06   8.73236451E-03
   7.81250000E-03   3.90625000E-02  -3.28209171E-05   5.41132031E-05   4.86400118E-03
   2.34375000E-02   3.90625000E-02  -1.55331087E-04   2.18744346E-04   4.85770637E-03
   3.90625000E-02   3.90625000E-02  -3.83964856E-04   3.77907680E-04   4.85396944E-03
   5.46875000E-02   3.90625000E-02  -7.02079618E-04   5.08437224E-04   4.85344185E-03
   7.03125000E-02   3.90625000E-02  -1.09099818E-03   6.05251931E-04   4.85674059E-03
   8.59375000E-02   3.90625000E-02  -1.53205753E-03   6.71288522E-04   4.86430433E-03
  0.101562500       3.90625000E-02  -2.00864603E-03   7.12463749E-04   4.87640873E-03
  0.117187500       3.90625000E-02  -2.50725728E-03   7.35152513E-04   4.89319861E-03
  0.132812500       3.90625000E-02  -3.01768840E-03   7.44969759E-04   4.91472241E-03
  0.148437500       3.90625000E-02  -3.53268115E-03   7.46293459E-04   4.94098291E-03
  0.164062500       3.90625000E-02  -4.04728204E-03   7.42219097E-04   4.97194566E-03
  0.179687500       3.90625000E-02  -4.55817813E-03   7.34738191E-04   5.00757992E-03
  0.195312500       3.90625000E-02  -5.06315148E-03   7.25011632E-04   5.04782749E-03
  0.210937500       3.90625000E-02  -5.56062348E-03   7.13635120E-04   5.09262644E-03
  0.226562500       3.90625000E-02  -6.04935596E-03   7.00859586E-04   5.14194462E-03
  0.242187500       3.90625000E-02  -6.52826671E-03   6.86721527E-04   5.19569637E-03
  0.257812500       3.90625000E-02  -6.99630752E-03   6.71180023E-04   5.25383372E-03
  0.273437500       3.90625000E-02  -7.45241623E-03   6.54130883E-04   5.31630591E-03
  0.289062500       3.90625000E-02  -7.89547712E-03   6.35461416E-04   5.38303657E-03
  0.304687500       3.90625000E-02  -8.32432695E-03   6.15066732E-04   5.45393769E-03
  0.320312500       3.90625000E-02  -8.73774383E-03   5.92827273E-04   5.52893803E-03
  0.335937500       3.90625000E-02  -9.13442858E-03   5.68625750E-04   5.60789928E-03
  0.351562500       3.90625000E-02  -9.51302703E-03   5.42367401E-04   5.69074042E-03
  0.367187500       3.90625000E-02  -9.87213571E-03   5.13958454E-04   5.77727798E-03
  0.382812500       3.90625000E-02  -1.02102933E-02   4.83297772E-04   5.86740766E-03
  0.398437500       3.90625000E-02  -1.05259847E-02   4.50322987E-04   5.96092641E-03
  0.414062500       3.90625000E-02  -1.08176433E-02   4.14957642E-04   6.05766568E-03
  0.429687500       3.90625000E-02  -1.10836877E-02   3.77155520E-04   6.15736702E-03
  0.445312500       3.90625000E-02  -1.13225430E-02   3.36878409E-04   6.25982555E-03
  0.460937500       3.90625000E-02  -1.15326177E-02   2.94106605E-04   6.36474229E-03
  0.476562500       3.90625000E-02  -1.17122754E-02   2.48863857E-04   6.47189142E-03
  0.492187500       3.90625000E-02  -1.18599292E-02   2.01168805E-04   6.58091437E-03
  0.507812500       3.90625000E-02  -1.19740600E-02   1.51094035E-04   6.69149868E-03
  0.523437500       3.90625000E-02  -1.20531637E-02   9.87275489E-05   6.80328999E-03
  0.539062500       3.90625000E-02  -1.20958416E-02   4.42165037E-05   6.91589527E-03
  0.554687500       3.90625000E-02  -1.21007841E-02  -1.23203527E-05   7.02889636E-03
  0.570312500       3.90625000E-02  -1.20667797E-02  -7.06665378E-05   7.14189932E-03
  0.585937500       3.90625000E-02  -1.19927963E-02  -1.30566274E-04   7.25447014E-03
  0.601562500       3.90625000E-02  -1.18779466E-02  -1.91777217E-04   7.36611336E-03
  0.617187500       3.90625000E-02  -1.17215421E-02  -2.53976788E-04   7.47640710E-03
  0.632812500       3.90625000E-02  -1.15231052E-02  -3.16831516E-04   7.58483913E-03
  0.648437500       3.90625000E-02  -1.12823825E-02  -3.79967852E-04   7.69094564E-03
  0.664062500       3.90625000E-02  -1.09993722E-02  -4.42989258E-04   7.79423676E-03
  0.679687500       3.90625000E-02  -1.06743360E-02  -5.05481032E-04   7.89425150E-03
  0.695312500       3.90625000E-02  -1.03078075E-02  -5.67022245E-04   7.99048226E-03
  0.710937500       3.90625000E-02  -9.90059134E-03  -6.27176603E-04   8.08254071E-03
  0.726562500       3.90625000E-02  -9.45378467E-03  -6.85496721E-04   8.16989876E-03
  0.742187500       3.90625000E-02  -8.96877516E-03  -7.41536729E-04   8.25218204E-03
  0.757812500       3.90625000E-02  -8.44726432E-03  -7.94825493E-04   8.32900126E-03
  0.773437500       3.90625000E-02  -7.89128989E-03  -8.44857714E-04   8.39998759E-03
  0.789062500       3.90625000E-02  -7.30325794E-03  -8.91040196E-04   8.46481137E-03
  0.804687500       3.90625000E-02  -6.68605883E-03  -9.32607159E-04   8.52318574E-03
  0.820312500       3.90625000E-02  -6.04322506E-03  -9.68501903E-04   8.57486390E-03
  0.835937500       3.90625000E-02  -5.37918042E-03  -9.97195020E-04   8.61966703E-03
  0.851562500       3.90625000E-02  -4.69961576E-03  -1.01647421E-03   8.65747221E-03
  0.867187500       3.90625000E-02  -4.01197001E-03  -1.02321419E-03   8.68820958E-03
  0.882812500       3.90625000E-02  -3.32602812E-03  -1.01315952E-03   8.71197321E-03
  0.898437500       3.90625000E-02  -2.65455502E-03  -9.80835641E-04   8.72892421E-03
  0.914062500       3.90625000E-02  -2.01381929E-03  -9.19668237E-04   8.73942114E-03
  0.929687500       3.90625000E-02  -1.42378663E-03  -8.22584203E-04   8.74400605E-03
  0.945312500       3.90625000E-02  -9.07638751E-04  -6.83435122E-04   8.74347892E-03
  0.960937500       3.90625000E-02  -4.90186794E-04  -5.00239199E-04   8.73888563E-03
  0.976562500       3.90625000E-02  -1.94883032E-04  -2.82200635E-04   8.73143505E-03
  0.992187500       3.90625000E-02  -4.02492769E-05  -6.42549348E-05   8.72227643E-03
   7.81250000E-03   5.46875000E-02  -4.85682904E-05   1.34912305E-04   4.86953370E-03
   2.34375000E-02   5.46875000E-02  -2.20215938E-04   4.30770480E-04   4.86113690E-03
   3.90625000E-02   5.46875000E-02  -5.25682175E-04   6.98497810E-04   4.85662837E-03
   5.46875000E-02   5.46875000E-02  -9.37034958E-04   9.15833749E-04   4.85609006E-03
   7.03125000E-02   5.46875000E-02  -1.43000949E-03   1.07827096E-03   4.85972920E-03
   8.59375000E-02   5.46875000E-02  -1.98285305E-03   1.19069964E-03   4.86772880E-03
  0.101562500       5.46875000E-02  -2.57680775E-03   1.26212894E-03   4.88023739E-03
  0.117187500       5.46875000E-02  -3.19661293E-03   1.30244112E-03   4.89733089E-03
  0.132812500       5.46875000E-02  -3.83054372E-03   1.32058433E-03   4.91905445E-03
  0.148437500       5.46875000E-02  -4.47003078E-03   1.32370542E-03   4.94539272E-03
  0.164062500       5.46875000E-02  -5.10905357E-03   1.31698221E-03   4.97636991E-03
  0.179687500       5.46875000E-02  -5.74346073E-03   1.30383251E-03   5.01193339E-03
  0.195312500       5.46875000E-02  -6.37034606E-03   1.28633541E-03   5.05205477E-03
  0.210937500       5.46875000E-02  -6.98758429E-03   1.26558566E-03   5.09669632E-03
  0.226562500       5.46875000E-02  -7.59348460E-03   1.24211260E-03   5.14581986E-03
  0.242187500       5.46875000E-02  -8.18657875E-03   1.21605094E-03   5.19935274E-03
  0.257812500       5.46875000E-02  -8.76547676E-03   1.18737388E-03   5.25723398E-03
  0.273437500       5.46875000E-02  -9.32879560E-03   1.15595653E-03   5.31945145E-03
  0.289062500       5.46875000E-02  -9.87513363E-03   1.12163695E-03   5.38591295E-03
  0.304687500       5.46875000E-02  -1.04030259E-02   1.08424318E-03   5.45653841E-03
  0.320312500       5.46875000E-02  -1.09109357E-02   1.04359642E-03   5.53124771E-03
  0.335937500       5.46875000E-02  -1.13972817E-02   9.99519485E-04   5.60991094E-03
  0.351562500       5.46875000E-02  -1.18604265E-02   9.51857073E-04   5.69244241E-03
  0.367187500       5.46875000E-02  -1.22986566E-02   9.00456798E-04   5.77871641E-03
  0.382812500       5.46875000E-02  -1.27102230E-02   8.45179311E-04   5.86855831E-03
  0.398437500       5.46875000E-02  -1.30933141E-02   7.85891199E-04   5.96178137E-03
  0.414062500       5.46875000E-02  -1.34460963E-02   7.22505152E-04   6.05825800E-03
  0.429687500       5.46875000E-02  -1.37667069E-02   6.54949923E-04   6.15769252E-03
  0.445312500       5.46875000E-02  -1.40532507E-02   5.83181565E-04   6.25988003E-03
  0.460937500       5.46875000E-02  -1.43038444E-02   5.07180288E-04   6.36455743E-03
  0.476562500       5.46875000E-02  -1.45166256E-02   4.26948740E-04   6.47147233E-03
  0.492187500       5.46875000E-02  -1.46897528E-02   3.42594867E-04   6.58024009E-03
  0.507812500       5.46875000E-02  -1.48214176E-02   2.54208484E-04   6.69059483E-03
  0.523437500       5.46875000E-02  -1.49099156E-02   1.61970005E-04   6.80218777E-03
  0.539062500       5.46875000E-02  -1.49536338E-02   6.61364247E-05   6.91459421E-03
  0.554687500       5.46875000E-02  -1.49510819E-02  -3.30711518E-05   7.02738948E-03
  0.570312500       5.46875000E-02  -1.49009153E-02  -1.35295340E-04   7.14021688E-03
  0.585937500       5.46875000E-02  -1.48019381E-02  -2.40096415E-04   7.25261588E-03
  0.601562500       5.46875000E-02  -1.46531928E-02  -3.47023772E-04   7.36407377E-03
  0.617187500       5.46875000E-02  -1.44539382E-02  -4.55552974E-04   7.47419149E-03
  0.632812500       5.46875000E-02  -1.42036788E-02  -5.65104652E-04   7.58244749E-03
  0.648437500       5.46875000E-02  -1.39021929E-02  -6.75039424E-04   7.68838124E-03
  0.664062500       5.46875000E-02  -1.35495514E-02  -7.84687814E-04   7.79150007E-03
  0.679687500       5.46875000E-02  -1.31461397E-02  -8.93336488E-04   7.89129920E-03
  0.695312500       5.46875000E-02  -1.26926545E-02  -1.00027083E-03   7.98734091E-03
  0.710937500       5.46875000E-02  -1.21901371E-02  -1.10473495E-03   8.07915349E-03
  0.726562500       5.46875000E-02  -1.16399713E-02  -1.20596937E-03   8.16628523E-03
  0.742187500       5.46875000E-02  -1.10438857E-02  -1.30320247E-03   8.24833848E-03
  0.757812500       5.46875000E-02  -1.04039796E-02  -1.39560644E-03   8.32487829E-03
  0.773437500       5.46875000E-02  -9.72275250E-03  -1.48229091E-03   8.39557592E-03
  0.789062500       5.46875000E-02  -9.00318008E-03  -1.56220491E-03   8.46012495E-03
  0.804687500       5.46875000E-02  -8.24882090E-03  -1.63397763E-03   8.51820130E-03
  0.820312500       5.46875000E-02  -7.46401306E-03  -1.69573608E-03   8.56959447E-03
  0.835937500       5.46875000E-02  -6.65415637E-03  -1.74480805E-03   8.61414988E-03
  0.851562500       5.46875000E-02  -5.82612399E-03  -1.77738932E-03   8.65174644E-03
  0.867187500       5.46875000E-02  -4.98878816E-03  -1.78819755E-03   8.68236553E-03
  0.882812500       5.46875000E-02  -4.15364280E-03  -1.77016552E-03   8.70609842E-03
  0.898437500       5.46875000E-02  -3.33543122E-03  -1.71440491E-03   8.72312859E-03
  0.914062500       5.46875000E-02  -2.55262991E-03  -1.61051494E-03   8.73379782E-03
  0.929687500       5.46875000E-02  -1.82764069E-03  -1.44762849E-03   8.73861182E-03
  0.945312500       5.46875000E-02  -1.18643895E-03  -1.21660135E-03   8.73822253E-03
  0.960937500       5.46875000E-02  -6.57601922E-04  -9.14216158E-04   8.73339362E-03
  0.976562500       5.46875000E-02  -2.71133613E-04  -5.50845405E-04   8.72487389E-03
  0.992187500       5.46875000E-02  -5.86487258E-05  -1.63451914E-04   8.71315785E-03
   7.81250000E-03   7.03125000E-02  -6.04571469E-05   2.43348331E-04   4.87177400E-03
   2.34375000E-02   7.03125000E-02  -2.70744204E-04   7.02938065E-04   4.86147311E-03
   3.90625000E-02   7.03125000E-02  -6.38268015E-04   1.09783805E-03   4.85598436E-03
   5.46875000E-02   7.03125000E-02  -1.12510158E-03   1.41320005E-03   4.85508749E-03
   7.03125000E-02   7.03125000E-02  -1.70129724E-03   1.64859812E-03   4.85872384E-03
   8.59375000E-02   7.03125000E-02  -2.34203087E-03   1.81247666E-03   4.86688409E-03
  0.101562500       7.03125000E-02  -3.02680046E-03   1.91760797E-03   4.87958826E-03
  0.117187500       7.03125000E-02  -3.73920635E-03   1.97770959E-03   4.89686104E-03
  0.132812500       7.03125000E-02  -4.46666777E-03   2.00524880E-03   4.91870567E-03
  0.148437500       7.03125000E-02  -5.19991014E-03   2.01031566E-03   4.94510029E-03
  0.164062500       7.03125000E-02  -5.93229756E-03   2.00033211E-03   4.97605978E-03
  0.179687500       7.03125000E-02  -6.65913569E-03   1.98028237E-03   5.01155714E-03
  0.195312500       7.03125000E-02  -7.37706572E-03   1.95325911E-03   5.05156908E-03
  0.210937500       7.03125000E-02  -8.08356795E-03   1.92096573E-03   5.09605883E-03
  0.226562500       7.03125000E-02  -8.77661444E-03   1.88424974E-03   5.14501659E-03
  0.242187500       7.03125000E-02  -9.45443474E-03   1.84340484E-03   5.19833900E-03
  0.257812500       7.03125000E-02  -1.01153729E-02   1.79844117E-03   5.25603630E-03
  0.273437500       7.03125000E-02  -1.07578076E-02   1.74923334E-03   5.31802699E-03
  0.289062500       7.03125000E-02  -1.13800839E-02   1.69557752E-03   5.38427848E-03
  0.304687500       7.03125000E-02  -1.19805150E-02   1.63723505E-03   5.45470091E-03
  0.320312500       7.03125000E-02  -1.25573613E-02   1.57397846E-03   5.52919134E-03
  0.335937500       7.03125000E-02  -1.31088290E-02   1.50558073E-03   5.60766365E-03
  0.351562500       7.03125000E-02  -1.36330649E-02   1.43181463E-03   5.69000235E-03
  0.367187500       7.03125000E-02  -1.41281616E-02   1.35247328E-03   5.77610219E-03
  0.382812500       7.03125000E-02  -1.45921586E-02   1.26737764E-03   5.86580951E-03
  0.398437500       7.03125000E-02  -1.50230601E-02   1.17634947E-03   5.95895434E-03
  0.414062500       7.03125000E-02  -1.54188331E-02   1.07927830E-03   6.05531083E-03
  0.429687500       7.03125000E-02  -1.57774165E-02   9.76059760E-04   6.15468249E-03
  0.445312500       7.03125000E-02  -1.60967521E-02   8.66646180E-04   6.25685137E-03
  0.460937500       7.03125000E-02  -1.63747612E-02   7.51027255E-04   6.36151712E-03
  0.476562500       7.03125000E-02  -1.66094117E-02   6.29251357E-04   6.46847114E-03
  0.492187500       7.03125000E-02  -1.67986937E-02   5.01432980E-04   6.57731993E-03
  0.507812500       7.03125000E-02  -1.69406738E-02   3.67758999E-04   6.68777898E-03
  0.523437500       7.03125000E-02  -1.70334950E-02   2.28497986E-04   6.79951208E-03
  0.539062500       7.03125000E-02  -1.70753859E-02   8.39859422E-05   6.91207219E-03
  0.554687500       7.03125000E-02  -1.70647129E-02  -6.53615862E-05   7.02505838E-03
  0.570312500       7.03125000E-02  -1.70000792E-02  -2.19013891E-04   7.13810371E-03
  0.585937500       7.03125000E-02  -1.68802738E-02  -3.76353593E-04   7.25073740E-03
  0.601562500       7.03125000E-02  -1.67042576E-02  -5.36706881E-04   7.36243930E-03
  0.617187500       7.03125000E-02  -1.64712630E-02  -6.99277909E-04   7.47280288E-03
  0.632812500       7.03125000E-02  -1.61808338E-02  -8.63218098E-04   7.58133642E-03
  0.648437500       7.03125000E-02  -1.58327781E-02  -1.02760002E-03   7.68752350E-03
  0.664062500       7.03125000E-02  -1.54272355E-02  -1.19142304E-03   7.79088261E-03
  0.679687500       7.03125000E-02  -1.49647053E-02  -1.35364290E-03   7.89090246E-03
  0.695312500       7.03125000E-02  -1.44460406E-02  -1.51319907E-03   7.98712764E-03
  0.710937500       7.03125000E-02  -1.38724642E-02  -1.66896777E-03   8.07910040E-03
  0.726562500       7.03125000E-02  -1.32455789E-02  -1.81984005E-03   8.16634111E-03
  0.742187500       7.03125000E-02  -1.25673870E-02  -1.96464825E-03   8.24847445E-03
  0.757812500       7.03125000E-02  -1.18403044E-02  -2.10217363E-03   8.32504127E-03
  0.773437500       7.03125000E-02  -1.10671986E-02  -2.23106425E-03   8.39571562E-03
  0.789062500       7.03125000E-02  -1.02514671E-02  -2.34972313E-03   8.46019294E-03
  0.804687500       7.03125000E-02  -9.39716771E-03  -2.45608808E-03   8.51816498E-03
  0.820312500       7.03125000E-02  -8.50920565E-03  -2.54735351E-03   8.56942683E-03
  0.835937500       7.03125000E-02  -7.59364152E-03  -2.61955196E-03   8.61381739E-03
  0.851562500       7.03125000E-02  -6.65811636E-03  -2.66712788E-03   8.65124539E-03
  0.867187500       7.03125000E-02  -5.71237784E-03  -2.68244371E-03   8.68171174E-03
  0.882812500       7.03125000E-02  -4.76890244E-03  -2.65543652E-03   8.70530121E-03
  0.898437500       7.03125000E-02  -3.84352799E-03  -2.57360423E-03   8.72218795E-03
  0.914062500       7.03125000E-02  -2.95599829E-03  -2.42251810E-03   8.73272214E-03
  0.929687500       7.03125000E-02  -2.13026255E-03  -2.18721246E-03   8.73733032E-03
  0.945312500       7.03125000E-02  -1.39447092E-03  -1.85486360E-03   8.73655453E-03
  0.960937500       7.03125000E-02  -7.80790811E-04  -1.41931674E-03   8.73097498E-03
  0.976562500       7.03125000E-02  -3.25590081E-04  -8.88255076E-04   8.72109737E-03
  0.992187500       7.03125000E-02  -7.12181936E-05  -2.93614808E-04   8.70715082E-03
   7.81250000E-03   8.59375000E-02  -6.89632143E-05   3.72180453E-04   4.86955838E-03
   2.34375000E-02   8.59375000E-02  -3.07982584E-04   1.02208392E-03   4.85772174E-03
   3.90625000E-02   8.59375000E-02  -7.23103993E-04   1.55985798E-03   4.85129748E-03
   5.46875000E-02   8.59375000E-02  -1.26867520E-03   1.98210753E-03   4.84992098E-03
   7.03125000E-02   8.59375000E-02  -1.90970674E-03   2.29544309E-03   4.85336967E-03
   8.59375000E-02   8.59375000E-02  -2.61842599E-03   2.51361285E-03   4.86151222E-03
  0.101562500       8.59375000E-02  -3.37270508E-03   2.65405234E-03   4.87427693E-03
  0.117187500       8.59375000E-02  -4.15524561E-03   2.73474725E-03   4.89160791E-03
  0.132812500       8.59375000E-02  -4.95291920E-03   2.77188676E-03   4.91348421E-03
  0.148437500       8.59375000E-02  -5.75606059E-03   2.77860579E-03   4.93989745E-03
  0.164062500       8.59375000E-02  -6.55771326E-03   2.76463060E-03   4.97081410E-03
  0.179687500       8.59375000E-02  -7.35290302E-03   2.73656659E-03   5.00623835E-03
  0.195312500       8.59375000E-02  -8.13800562E-03   2.69856560E-03   5.04614506E-03
  0.210937500       8.59375000E-02  -8.91025085E-03   2.65297201E-03   5.09049091E-03
  0.226562500       8.59375000E-02  -9.66737978E-03   2.60099047E-03   5.13930107E-03
  0.242187500       8.59375000E-02  -1.04074143E-02   2.54309643E-03   5.19247679E-03
  0.257812500       8.59375000E-02  -1.11285038E-02   2.47936323E-03   5.24999062E-03
  0.273437500       8.59375000E-02  -1.18288388E-02   2.40967120E-03   5.31183975E-03
  0.289062500       8.59375000E-02  -1.25066042E-02   2.33378238E-03   5.37793571E-03
  0.304687500       8.59375000E-02  -1.31599531E-02   2.25142017E-03   5.44819655E-03
  0.320312500       8.59375000E-02  -1.37869976E-02   2.16230284E-03   5.52259153E-03
  0.335937500       8.59375000E-02  -1.43857896E-02   2.06614309E-03   5.60096372E-03
  0.351562500       8.59375000E-02  -1.49543285E-02   1.96266361E-03   5.68324840E-03
  0.367187500       8.59375000E-02  -1.54905710E-02   1.85160781E-03   5.76930959E-03
  0.382812500       8.59375000E-02  -1.59924254E-02   1.73274463E-03   5.85904857E-03
  0.398437500       8.59375000E-02  -1.64577551E-02   1.60587742E-03   5.95223997E-03
  0.414062500       8.59375000E-02  -1.68844033E-02   1.47084764E-03   6.04869984E-03