 VARIABLES="X","Y","U","V","P"
 ZONE F=POINT, I=          32 , J=          32
   1.56250000E-02   1.56250000E-02   4.05198836E-04  -4.05860657E-04   1.65313780E-02
   4.68750000E-02   1.56250000E-02   1.31654274E-03  -5.06934884E-04   1.64923761E-02
   7.81250000E-02   1.56250000E-02   2.08065659E-03  -2.59275315E-04   1.63540822E-02
  0.109375000       1.56250000E-02   2.25745374E-03   7.92368155E-05   1.61397718E-02
  0.140625000       1.56250000E-02   1.75739254E-03   4.16400464E-04   1.58684831E-02
  0.171875000       1.56250000E-02   6.01572567E-04   7.34168047E-04   1.55525347E-02
  0.203125000       1.56250000E-02  -1.18351809E-03   1.04541436E-03   1.51977250E-02
  0.234375000       1.56250000E-02  -3.59527790E-03   1.36110315E-03   1.48112578E-02
  0.265625000       1.56250000E-02  -6.64203893E-03   1.68100325E-03   1.44074960E-02
  0.296875000       1.56250000E-02  -1.03169996E-02   1.98994903E-03   1.40078086E-02
  0.328125000       1.56250000E-02  -1.45741785E-02   2.26376276E-03   1.36416778E-02
  0.359375000       1.56250000E-02  -1.93145685E-02   2.47354526E-03   1.33456495E-02
  0.390625000       1.56250000E-02  -2.43803561E-02   2.58938107E-03   1.31611889E-02
  0.421875000       1.56250000E-02  -2.95563303E-02   2.58378754E-03   1.31315952E-02
  0.453125000       1.56250000E-02  -3.45775634E-02   2.43454985E-03   1.32980905E-02
  0.484375000       1.56250000E-02  -3.91418487E-02   2.12660921E-03   1.36952205E-02
  0.515625000       1.56250000E-02  -4.29249667E-02   1.65305496E-03   1.43456934E-02
  0.546875000       1.56250000E-02  -4.55978326E-02   1.01595349E-03   1.52546717E-02
  0.578125000       1.56250000E-02  -4.68480326E-02   2.29747544E-04   1.64036341E-02
  0.609375000       1.56250000E-02  -4.64228019E-02  -6.59658341E-04   1.77189652E-02
  0.640625000       1.56250000E-02  -4.40534502E-02  -1.71387219E-03   1.90698877E-02
  0.671875000       1.56250000E-02  -3.95335443E-02  -2.80958554E-03   2.03404352E-02
  0.703125000       1.56250000E-02  -3.29289883E-02  -3.79773229E-03   2.13926118E-02
  0.734375000       1.56250000E-02  -2.46217772E-02  -4.51137777E-03   2.20942385E-02
  0.765625000       1.56250000E-02  -1.53432311E-02  -4.76822350E-03   2.23544370E-02
  0.796875000       1.56250000E-02  -6.18454069E-03  -4.39085579E-03   2.21621040E-02
  0.828125000       1.56250000E-02   1.46101438E-03  -3.25478613E-03   2.16203369E-02
  0.859375000       1.56250000E-02   6.21907832E-03  -1.50340830E-03   2.09143776E-02
  0.890625000       1.56250000E-02   7.56191928E-03   1.60078605E-04   2.02433374E-02
  0.921875000       1.56250000E-02   6.16626348E-03   1.23462570E-03   1.97601430E-02
  0.953125000       1.56250000E-02   3.36330570E-03   1.56703661E-03   1.95138790E-02
  0.984375000       1.56250000E-02   8.97769060E-04   8.97078600E-04   1.94951426E-02
   1.56250000E-02   4.68750000E-02   5.07222838E-04  -1.31890015E-03   1.65690631E-02
   4.68750000E-02   4.68750000E-02   1.35147735E-03  -1.35105685E-03   1.65248066E-02
   7.81250000E-02   4.68750000E-02   1.36385940E-03  -1.94573731E-04   1.63964685E-02
  0.109375000       4.68750000E-02  -1.22243655E-04   1.31851621E-03   1.62077043E-02
  0.140625000       4.68750000E-02  -3.27538606E-03   2.82235816E-03   1.59685425E-02
  0.171875000       4.68750000E-02  -8.04426055E-03   4.24276246E-03   1.56850498E-02
  0.203125000       4.68750000E-02  -1.43283959E-02   5.59458369E-03   1.53595125E-02
  0.234375000       4.68750000E-02  -2.19964627E-02   6.87987171E-03   1.49967652E-02
  0.265625000       4.68750000E-02  -3.08618918E-02   8.06278642E-03   1.46079641E-02
  0.296875000       4.68750000E-02  -4.06630263E-02   9.07333381E-03   1.42121473E-02
  0.328125000       4.68750000E-02  -5.10625951E-02   9.82724223E-03   1.38369640E-02
  0.359375000       4.68750000E-02  -6.16608895E-02   1.02400994E-02   1.35180950E-02
  0.390625000       4.68750000E-02  -7.20162317E-02   1.02365119E-02   1.32973669E-02
  0.421875000       4.68750000E-02  -8.16665366E-02   9.75645054E-03   1.32196657E-02
  0.453125000       4.68750000E-02  -9.01487470E-02   8.75943433E-03   1.33288428E-02
  0.484375000       4.68750000E-02  -9.70153064E-02   7.22682755E-03   1.36628291E-02
  0.515625000       4.68750000E-02 -0.101847932       5.16258460E-03   1.42482277E-02
  0.546875000       4.68750000E-02 -0.104269043       2.59385444E-03   1.50948297E-02
  0.578125000       4.68750000E-02 -0.103949577      -4.24612081E-04   1.61912236E-02
  0.609375000       4.68750000E-02 -0.100544006      -3.84299411E-03   1.74179785E-02
  0.640625000       4.68750000E-02  -9.38829631E-02  -7.56667275E-03   1.87044684E-02
  0.671875000       4.68750000E-02  -8.41045678E-02  -1.12595968E-02   1.99250765E-02
  0.703125000       4.68750000E-02  -7.15435147E-02  -1.45164868E-02   2.09421944E-02
  0.734375000       4.68750000E-02  -5.67762181E-02  -1.68688782E-02   2.16273405E-02
  0.765625000       4.68750000E-02  -4.06772941E-02  -1.77886523E-02   2.18944177E-02
  0.796875000       4.68750000E-02  -2.44719982E-02  -1.67339183E-02   2.17371341E-02
  0.828125000       4.68750000E-02  -9.74423252E-03  -1.32840900E-02   2.12542377E-02
  0.859375000       4.68750000E-02   1.60356623E-03  -7.57925352E-03   2.06397735E-02
  0.890625000       4.68750000E-02   7.67800398E-03  -1.18179107E-03   2.00724266E-02
  0.921875000       4.68750000E-02   8.23357608E-03   3.41432099E-03   1.96731593E-02
  0.953125000       4.68750000E-02   5.21010533E-03   5.21007739E-03   1.94732733E-02
  0.984375000       4.68750000E-02   1.56638201E-03   3.35919904E-03   1.94676258E-02
   1.56250000E-02   7.81250000E-02   1.16449075E-04  -1.94180687E-03   1.67149846E-02
   4.68750000E-02   7.81250000E-02  -4.03972575E-04  -1.05112162E-03   1.66421216E-02
   7.81250000E-02   7.81250000E-02  -2.77473824E-03   1.86293782E-03   1.65071376E-02
  0.109375000       7.81250000E-02  -7.35836942E-03   5.32716373E-03   1.63256098E-02
  0.140625000       7.81250000E-02  -1.41079528E-02   8.70976690E-03   1.61010269E-02
  0.171875000       7.81250000E-02  -2.28442699E-02   1.18508004E-02   1.58294197E-02
  0.203125000       7.81250000E-02  -3.33030708E-02   1.47170071E-02   1.55061875E-02
  0.234375000       7.81250000E-02  -4.51464131E-02   1.72543079E-02   1.51314419E-02
  0.265625000       7.81250000E-02  -5.79686537E-02   1.93604194E-02   1.47134382E-02
  0.296875000       7.81250000E-02  -7.13120028E-02   2.09048633E-02   1.42702274E-02
  0.328125000       7.81250000E-02  -8.46877396E-02   2.17572954E-02   1.38301905E-02
  0.359375000       7.81250000E-02  -9.75968614E-02   2.18062531E-02   1.34313321E-02
  0.390625000       7.81250000E-02 -0.109548286       2.09687185E-02   1.31192598E-02
  0.421875000       7.81250000E-02 -0.120073974       1.91943441E-02   1.29437614E-02
  0.453125000       7.81250000E-02 -0.128740937       1.64666381E-02   1.29542481E-02
  0.484375000       7.81250000E-02 -0.135160103       1.28022544E-02   1.31943002E-02
  0.515625000       7.81250000E-02 -0.138992116       8.24890472E-03   1.36957793E-02
  0.546875000       7.81250000E-02 -0.139949337       2.88272765E-03   1.44731971E-02
  0.578125000       7.81250000E-02 -0.137790859      -3.19418707E-03   1.54914884E-02
  0.609375000       7.81250000E-02 -0.132387191      -9.88461636E-03   1.66698191E-02
  0.640625000       7.81250000E-02 -0.123786017      -1.67888347E-02   1.79362372E-02
  0.671875000       7.81250000E-02 -0.112171248      -2.34316252E-02   1.91648901E-02
  0.703125000       7.81250000E-02  -9.78448689E-02  -2.92323381E-02   2.02169679E-02
  0.734375000       7.81250000E-02  -8.12737495E-02  -3.34912688E-02   2.09614504E-02
  0.765625000       7.81250000E-02  -6.31498024E-02  -3.53884138E-02   2.13064421E-02
  0.796875000       7.81250000E-02  -4.44539674E-02  -3.40341479E-02   2.12352108E-02
  0.828125000       7.81250000E-02  -2.65131518E-02  -2.86510624E-02   2.08326150E-02
  0.859375000       7.81250000E-02  -1.10158157E-02  -1.90562550E-02   2.02769674E-02
  0.890625000       7.81250000E-02   3.17234080E-05  -6.82650181E-03   1.97592359E-02
  0.921875000       7.81250000E-02   4.77629621E-03   3.75721278E-03   1.93888079E-02
  0.953125000       7.81250000E-02   4.03784448E-03   8.62527546E-03   1.92166436E-02
  0.984375000       7.81250000E-02   1.34882645E-03   6.27200073E-03   1.92105398E-02
   1.56250000E-02  0.109375000      -6.23535016E-04  -1.43248844E-03   1.69493426E-02
   4.68750000E-02  0.109375000      -3.37260123E-03   1.71247066E-03   1.68262273E-02
   7.81250000E-02  0.109375000      -8.95869266E-03   7.05711031E-03   1.66681353E-02
  0.109375000      0.109375000      -1.70278046E-02   1.27833821E-02   1.64736751E-02
  0.140625000      0.109375000      -2.72289291E-02   1.81981269E-02   1.62337255E-02
  0.171875000      0.109375000      -3.92215773E-02   2.30812319E-02   1.59351360E-02
  0.203125000      0.109375000      -5.26212528E-02   2.73309965E-02   1.55669209E-02
  0.234375000      0.109375000      -6.69849440E-02   3.08303908E-02   1.51255457E-02
  0.265625000      0.109375000      -8.18287134E-02   3.34323458E-02   1.46182766E-02
  0.296875000      0.109375000      -9.66536179E-02   3.49844098E-02   1.40647646E-02
  0.328125000      0.109375000     -0.110968128       3.53543423E-02   1.34972055E-02
  0.359375000      0.109375000     -0.124304630       3.44453529E-02   1.29590882E-02
  0.390625000      0.109375000     -0.136231408       3.22025418E-02   1.25024971E-02
  0.421875000      0.109375000     -0.146361098       2.86141336E-02   1.21839782E-02
  0.453125000      0.109375000     -0.154356480       2.37098020E-02   1.20592238E-02
  0.484375000      0.109375000     -0.159933627       1.75571591E-02   1.21769598E-02
  0.515625000      0.109375000     -0.162862599       1.02568483E-02   1.25725204E-02
  0.546875000      0.109375000     -0.162965387       1.93618925E-03   1.32616702E-02
  0.578125000      0.109375000     -0.160109848      -7.26033514E-03   1.41975563E-02
  0.609375000      0.109375000     -0.154269189      -1.70615762E-02   1.53473532E-02
  0.640625000      0.109375000     -0.145497322      -2.69843712E-02   1.66220088E-02
  0.671875000      0.109375000     -0.133879364      -3.64687033E-02   1.79014821E-02
  0.703125000      0.109375000     -0.119586840      -4.48142290E-02   1.90484859E-02
  0.734375000      0.109375000     -0.102917202      -5.11502400E-02   1.99285522E-02
  0.765625000      0.109375000      -8.43460485E-02  -5.44245839E-02   2.04386991E-02
  0.796875000      0.109375000      -6.45924434E-02  -5.34473062E-02   2.05410421E-02
  0.828125000      0.109375000      -4.46984246E-02  -4.70724925E-02   2.02899668E-02
  0.859375000      0.109375000      -2.61284970E-02  -3.47017683E-02   1.98321119E-02
  0.890625000      0.109375000      -1.08923241E-02  -1.74642950E-02   1.93552785E-02
  0.921875000      0.109375000      -1.29631301E-03   5.43659553E-05   1.89992003E-02
  0.953125000      0.109375000       1.73598737E-03   1.00325402E-02   1.87947042E-02
  0.984375000      0.109375000       8.33729864E-04   8.45290814E-03   1.87532138E-02
   1.56250000E-02  0.140625000      -1.56252738E-03   7.57453847E-04   1.72200501E-02
   4.68750000E-02  0.140625000      -6.82037277E-03   7.53584504E-03   1.70379002E-02
   7.81250000E-02  0.140625000      -1.55926552E-02   1.55951967E-02   1.68426596E-02
  0.109375000      0.140625000      -2.67343540E-02   2.34548599E-02   1.66079737E-02
  0.140625000      0.140625000      -3.96264121E-02   3.06135826E-02   1.63121223E-02
  0.171875000      0.140625000      -5.38466051E-02   3.68671082E-02   1.59354974E-02
  0.203125000      0.140625000      -6.89837039E-02   4.20658216E-02   1.54640544E-02
  0.234375000      0.140625000      -8.45941380E-02   4.60509695E-02   1.48938941E-02
  0.265625000      0.140625000     -0.100217052       4.86598313E-02   1.42345214E-02
  0.296875000      0.140625000     -0.115399182       4.97482568E-02   1.35101341E-02
  0.328125000      0.140625000     -0.129714280       4.92092595E-02   1.27591975E-02
  0.359375000      0.140625000     -0.142775312       4.69826646E-02   1.20323841E-02
  0.390625000      0.140625000     -0.154241294       4.30576839E-02   1.13889920E-02
  0.421875000      0.140625000     -0.163820162       3.74710187E-02   1.08920550E-02
  0.453125000      0.140625000     -0.171268672       3.03025134E-02   1.06023978E-02
  0.484375000      0.140625000     -0.176390052       2.16694325E-02   1.05720889E-02
  0.515625000      0.140625000     -0.179030284       1.17198825E-02   1.08375996E-02
  0.546875000      0.140625000     -0.179074883       6.25633460E-04   1.14129987E-02
  0.578125000      0.140625000     -0.176450267      -1.14262095E-02   1.22713335E-02
  0.609375000      0.140625000     -0.171111137      -2.40730941E-02   1.33912247E-02
  0.640625000      0.140625000     -0.163025439      -3.68289798E-02   1.46888653E-02
  0.671875000      0.140625000     -0.152187914      -4.90789600E-02   1.60511453E-02
  0.703125000      0.140625000     -0.138646126      -6.00381345E-02   1.73446592E-02
  0.734375000      0.140625000     -0.122533277      -6.87089711E-02   1.84320752E-02
  0.765625000      0.140625000     -0.104116082      -7.38545060E-02   1.91963799E-02
  0.796875000      0.140625000      -8.38643610E-02  -7.40230978E-02   1.95708256E-02
  0.828125000      0.140625000      -6.25523999E-02  -6.77030757E-02   1.95664745E-02
  0.859375000      0.140625000      -4.14130278E-02  -5.37808463E-02   1.92821827E-02
  0.890625000      0.140625000      -2.23628320E-02  -3.26717906E-02   1.88780297E-02
  0.921875000      0.140625000      -8.10138416E-03  -8.59562494E-03   1.85034871E-02
  0.953125000      0.140625000      -9.85875027E-04   8.53388570E-03   1.82418339E-02
  0.984375000      0.140625000       2.90222932E-04   9.57600586E-03   1.81370694E-02
   1.56250000E-02  0.171875000      -2.47343886E-03   4.79873829E-03   1.74485091E-02
   4.68750000E-02  0.171875000      -1.00017143E-02   1.62896756E-02   1.72067899E-02
   7.81250000E-02  0.171875000      -2.14046463E-02   2.70214677E-02   1.69607848E-02
  0.109375000      0.171875000      -3.48600298E-02   3.66250724E-02   1.66566540E-02
  0.140625000      0.171875000      -4.95849401E-02   4.50534336E-02   1.62628945E-02
  0.171875000      0.171875000      -6.51412904E-02   5.21906987E-02   1.57576911E-02
  0.203125000      0.171875000      -8.11470747E-02   5.78673966E-02   1.51281739E-02
  0.234375000      0.171875000      -9.72106382E-02   6.19039312E-02   1.43738519E-02
  0.265625000      0.171875000     -0.112938963       6.41403049E-02   1.35094309E-02
  0.296875000      0.171875000     -0.127957970       6.44556955E-02   1.25656836E-02
  0.328125000      0.171875000     -0.141927481       6.27793670E-02   1.15883779E-02
  0.359375000      0.171875000     -0.154548943       5.90942316E-02   1.06354309E-02
  0.390625000      0.171875000     -0.165567309       5.34348711E-02   9.77264252E-03
  0.421875000      0.171875000     -0.174769044       4.58823591E-02   9.06828046E-03
  0.453125000      0.171875000     -0.181977332       3.65576297E-02   8.58690962E-03
  0.484375000      0.171875000     -0.187046438       2.56146230E-02   8.38274974E-03
  0.515625000      0.171875000     -0.189856857       1.32342568E-02   8.49293638E-03
  0.546875000      0.171875000     -0.190313488      -3.80083773E-04   8.93083401E-03
  0.578125000      0.171875000     -0.188348174      -1.50050726E-02   9.69753321E-03
  0.609375000      0.171875000     -0.183890924      -3.02873142E-02   1.07798921E-02
  0.640625000      0.171875000     -0.176856473      -4.57328483E-02   1.21048726E-02
  0.671875000      0.171875000     -0.167165205      -6.07027262E-02   1.35695674E-02
  0.703125000      0.171875000     -0.154753953      -7.43668601E-02   1.50473733E-02
  0.734375000      0.171875000     -0.139600292      -8.56466442E-02   1.63997840E-02
  0.765625000      0.171875000     -0.121767744      -9.31667536E-02   1.74950976E-02
  0.796875000      0.171875000     -0.101481229      -9.52495635E-02   1.82333365E-02
  0.828125000      0.171875000      -7.92482793E-02  -9.00222212E-02   1.85730942E-02
  0.859375000      0.171875000      -5.60555942E-02  -7.57946819E-02   1.85508877E-02
  0.890625000      0.171875000      -3.36839184E-02  -5.20809777E-02   1.82794407E-02
  0.921875000      0.171875000      -1.50814280E-02  -2.20515430E-02   1.79101806E-02
  0.953125000      0.171875000      -3.78595176E-03   3.57784634E-03   1.75689943E-02
  0.984375000      0.171875000      -1.98332302E-04   9.66749340E-03   1.73758324E-02
   1.56250000E-02  0.203125000      -3.19502898E-03   1.04735121E-02   1.75353996E-02
   4.68750000E-02  0.203125000      -1.24344183E-02   2.73933895E-02   1.72413886E-02
   7.81250000E-02  0.203125000      -2.56907754E-02   4.05831784E-02   1.69339534E-02
  0.109375000      0.203125000      -4.06594649E-02   5.14870510E-02   1.65359508E-02
  0.140625000      0.203125000      -5.64618334E-02   6.07109889E-02   1.60105545E-02
  0.171875000      0.203125000      -7.26712495E-02   6.82844743E-02   1.53376618E-02
  0.203125000      0.203125000      -8.89545530E-02   7.40439594E-02   1.45090735E-02
  0.234375000      0.203125000     -0.104988322       7.78052509E-02   1.35304891E-02
  0.265625000      0.203125000     -0.120458357       7.94210136E-02   1.24237007E-02
  0.296875000      0.203125000     -0.135073543       7.87986666E-02   1.12269484E-02
  0.328125000      0.203125000     -0.148575515       7.59042799E-02   9.99324489E-03
  0.359375000      0.203125000     -0.160741836       7.07600042E-02   8.78701732E-03
  0.390625000      0.203125000     -0.171384096       6.34377003E-02   7.67948013E-03
  0.421875000      0.203125000     -0.180342853       5.40511385E-02   6.74307952E-03
  0.453125000      0.203125000     -0.187481612       4.27482873E-02   6.04541367E-03
  0.484375000      0.203125000     -0.192681640       2.97052525E-02   5.64286672E-03
  0.515625000      0.203125000     -0.195839643       1.51229193E-02   5.57416771E-03
  0.546875000      0.203125000     -0.196869373      -7.73306703E-04   5.85409533E-03
  0.578125000      0.203125000     -0.195708096      -1.77318975E-02   6.50860695E-03
  0.609375000      0.203125000     -0.192283481      -3.54383029E-02   7.53909443E-03
  0.640625000      0.203125000     -0.186486840      -5.34103513E-02   8.88487790E-03
  0.671875000      0.203125000     -0.178182006      -7.10196793E-02   1.04558393E-02
  0.703125000      0.203125000     -0.167207062      -8.74351412E-02   1.21353287E-02
  0.734375000      0.203125000     -0.153392211     -0.101546451       1.37868291E-02
  0.765625000      0.203125000     -0.136603177     -0.111888550       1.52661018E-02
  0.796875000      0.203125000     -0.116821773     -0.116596073       1.64398141E-02
  0.828125000      0.203125000      -9.42829028E-02 -0.113448292       1.72098894E-02
  0.859375000      0.203125000      -6.97018877E-02 -0.100143455       1.75401010E-02
  0.890625000      0.203125000      -4.46522310E-02  -7.51550794E-02   1.74777843E-02
  0.921875000      0.203125000      -2.21317839E-02  -4.01022956E-02   1.71563290E-02
  0.953125000      0.203125000      -6.63758861E-03  -5.16282767E-03   1.67523175E-02
  0.984375000      0.203125000      -6.43460429E-04   8.82513076E-03   1.64481904E-02
   1.56250000E-02  0.234375000      -3.63785401E-03   1.73132103E-02   1.73893925E-02
   4.68750000E-02  0.234375000      -1.39022907E-02   4.00693230E-02   1.70540866E-02
   7.81250000E-02  0.234375000      -2.82172374E-02   5.54853901E-02   1.66796613E-02
  0.109375000      0.234375000      -4.39720079E-02   6.73080012E-02   1.61728952E-02
  0.140625000      0.234375000      -6.02233931E-02   7.69354627E-02   1.54957129E-02
  0.171875000      0.234375000      -7.65595660E-02   8.45902860E-02   1.46323843E-02
  0.203125000      0.234375000      -9.26958621E-02   9.01384875E-02   1.35813896E-02
  0.234375000      0.234375000     -0.108374059       9.34036076E-02   1.23560848E-02
  0.265625000      0.234375000     -0.123351961       9.42556113E-02   1.09861456E-02
  0.296875000      0.234375000     -0.137410149       9.26290601E-02   9.51733347E-03
  0.328125000      0.234375000     -0.150356635       8.85212868E-02   8.00942164E-03
  0.359375000      0.234375000     -0.162026674       8.19848478E-02   6.53257919E-03
  0.390625000      0.234375000     -0.172279119       7.31179118E-02   5.16270008E-03
  0.421875000      0.234375000     -0.180991501       6.20552599E-02   3.97600187E-03
  0.453125000      0.234375000     -0.188055664       4.89612743E-02   3.04323691E-03
  0.484375000      0.234375000     -0.193375662       3.40260416E-02   2.42367340E-03
  0.515625000      0.234375000     -0.196868345       1.74651630E-02   2.15904019E-03
  0.546875000      0.234375000     -0.198466524      -4.77147056E-04   2.26757117E-03
  0.578125000      0.234375000     -0.198125809      -1.95224509E-02   2.79024779E-03
  0.609375000      0.234375000     -0.195790082      -3.94033864E-02   3.75030749E-03
  0.640625000      0.234375000     -0.191348314      -5.96805811E-02   5.09973476E-03
  0.671875000      0.234375000     -0.184624374      -7.97761753E-02   6.76306756E-03
  0.703125000      0.234375000     -0.175370961      -9.89057273E-02   8.63698404E-03
  0.734375000      0.234375000     -0.163281441     -0.115979522       1.05916150E-02
  0.765625000      0.234375000     -0.148031175     -0.129494578       1.24754701E-02
  0.796875000      0.234375000     -0.129361302     -0.137441546       1.41264228E-02
  0.828125000      0.234375000     -0.107226603     -0.137277082       1.53912250E-02
  0.859375000      0.234375000      -8.20439905E-02 -0.126079381       1.61556564E-02
  0.890625000      0.234375000      -5.51106930E-02 -0.101203591       1.63856540E-02
  0.921875000      0.234375000      -2.92972475E-02  -6.23896718E-02   1.61700752E-02
  0.953125000      0.234375000      -9.77044832E-03  -1.78989880E-02   1.57188326E-02
  0.984375000      0.234375000      -1.19317288E-03   6.98741106E-03   1.53025268E-02
   1.56250000E-02  0.265625000      -3.78117152E-03   2.47390531E-02   1.69461519E-02
   4.68750000E-02  0.265625000      -1.43862823E-02   5.35249598E-02   1.65826678E-02
   7.81250000E-02  0.265625000      -2.90323198E-02   7.09978566E-02   1.61417816E-02
  0.109375000      0.265625000      -4.49431688E-02   8.34610462E-02   1.55219398E-02
  0.140625000      0.265625000      -6.11204207E-02   9.32026356E-02   1.46869132E-02
  0.171875000      0.265625000      -7.71588609E-02  0.100682177       1.36266146E-02
  0.203125000      0.265625000      -9.28124785E-02  0.105817139       1.23468656E-02
  0.234375000      0.265625000     -0.107876346      0.108448260       1.08690187E-02
  0.265625000      0.265625000     -0.122165777      0.108464122       9.23059043E-03
  0.296875000      0.265625000     -0.135516495      0.105822280       7.48455059E-03
  0.328125000      0.265625000     -0.147785485      0.100543901       5.69693977E-03
  0.359375000      0.265625000     -0.158849388       9.27030444E-02   3.94323375E-03
  0.390625000      0.265625000     -0.168601304       8.24157149E-02   2.30379147E-03
  0.421875000      0.265625000     -0.176948458       6.98313266E-02   8.58717365E-04
  0.453125000      0.265625000     -0.183811098       5.51273003E-02  -3.17630620E-04
  0.484375000      0.265625000     -0.189123362       3.85071337E-02  -1.16231933E-03
  0.515625000      0.265625000     -0.192834824       2.02017762E-02  -1.62959134E-03
  0.546875000      0.265625000     -0.194912121       4.73547494E-04  -1.69651676E-03
  0.578125000      0.265625000     -0.195339978      -2.03773268E-02  -1.31924707E-03
  0.609375000      0.265625000     -0.194091260      -4.21276130E-02  -4.48970037E-04
  0.640625000      0.265625000     -0.191070810      -6.44149780E-02   8.78469902E-04
  0.671875000      0.265625000     -0.186079830      -8.67542550E-02   2.60343170E-03
  0.703125000      0.265625000     -0.178801805     -0.108457491       4.63929446E-03
  0.734375000      0.265625000     -0.168807566     -0.128510579       6.86867349E-03
  0.765625000      0.265625000     -0.155592352     -0.145428613       9.14090034E-03
  0.796875000      0.265625000     -0.138660342     -0.157109499       1.12741096E-02
  0.828125000      0.265625000     -0.117678881     -0.160725817       1.30671924E-02
  0.859375000      0.265625000      -9.27420110E-02 -0.152750999       1.43288979E-02
  0.890625000      0.265625000      -6.48161620E-02 -0.129392326       1.49324983E-02
  0.921875000      0.265625000      -3.65119167E-02  -8.83202031E-02   1.48962336E-02
  0.953125000      0.265625000      -1.32516446E-02  -3.47576886E-02   1.44407330E-02
  0.984375000      0.265625000      -1.88915082E-03   3.90380458E-03   1.39094191E-02
   1.56250000E-02  0.296875000      -3.64808459E-03   3.21747735E-02   1.61797702E-02
   4.68750000E-02  0.296875000      -1.39784040E-02   6.70361817E-02   1.58019383E-02
   7.81250000E-02  0.296875000      -2.83227488E-02   8.64842609E-02   1.53004453E-02
  0.109375000      0.296875000      -4.38536182E-02   9.94167253E-02   1.45723037E-02
  0.140625000      0.296875000      -5.95169365E-02  0.109079584       1.35851679E-02
  0.171875000      0.296875000      -7.49011487E-02  0.116212621       1.23348646E-02
  0.203125000      0.296875000      -8.97855982E-02  0.120805576       1.08342990E-02
  0.234375000      0.296875000     -0.104004249      0.122723773       9.11235623E-03
  0.265625000      0.296875000     -0.117414191      0.121874064       7.21392687E-03
  0.296875000      0.296875000     -0.129890263      0.118232265       5.19871805E-03
  0.328125000      0.296875000     -0.141323686      0.111837029       3.13873170E-03
  0.359375000      0.296875000     -0.151620686      0.102777988       1.11463072E-03
  0.390625000      0.296875000     -0.160701722       9.11856070E-02  -7.88647041E-04
  0.421875000      0.296875000     -0.168502331       7.72238970E-02  -2.48683989E-03
  0.453125000      0.296875000     -0.174975753       6.10866174E-02  -3.90164950E-03
  0.484375000      0.296875000     -0.180095613       4.29955125E-02  -4.96615702E-03
  0.515625000      0.296875000     -0.183856428       2.32002307E-02  -5.63020632E-03
  0.546875000      0.296875000     -0.186270714       1.97974918E-03  -5.86554036E-03
  0.578125000      0.296875000     -0.187362850      -2.03537904E-02  -5.63821243E-03
  0.609375000      0.296875000     -0.187145561      -4.36111614E-02  -4.87418938E-03
  0.640625000      0.296875000     -0.185555100      -6.75383359E-02  -3.59889120E-03
  0.671875000      0.296875000     -0.182389677      -9.17845592E-02  -1.85596780E-03
  0.703125000      0.296875000     -0.177284032     -0.115808994       2.87517061E-04
  0.734375000      0.296875000     -0.169705257     -0.138730973       2.73293979E-03
  0.765625000      0.296875000     -0.158982664     -0.159145474       5.34035172E-03
  0.796875000      0.296875000     -0.144389182     -0.174918085       7.92083703E-03
  0.828125000      0.296875000     -0.125298500     -0.182989746       1.02381511E-02
  0.859375000      0.296875000     -0.101457819     -0.179265320       1.20315077E-02
  0.890625000      0.296875000      -7.34535083E-02 -0.158809125       1.30762607E-02
  0.921875000      0.296875000      -4.35337611E-02 -0.117128573       1.32953394E-02
  0.953125000      0.296875000      -1.70645881E-02  -5.56803979E-02   1.28843915E-02
  0.984375000      0.296875000      -2.80810287E-03  -7.94680906E-04   1.22521464E-02
   1.56250000E-02  0.328125000      -3.28405970E-03   3.91127616E-02   1.51039343E-02
   4.68750000E-02  0.328125000      -1.28221205E-02   7.99772441E-02   1.47250704E-02
   7.81250000E-02  0.328125000      -2.63310820E-02  0.101403780       1.41725503E-02
  0.109375000      0.328125000      -4.10314798E-02  0.114729613       1.33474506E-02
  0.140625000      0.328125000      -5.58107048E-02  0.124202393       1.22225713E-02
  0.171875000      0.328125000      -7.02367052E-02  0.130885720       1.07993679E-02
  0.203125000      0.328125000      -8.41008499E-02  0.134862423       9.09701735E-03
  0.234375000      0.328125000      -9.72626507E-02  0.136028886       7.15109240E-03
  0.265625000      0.328125000     -0.109607480      0.134309500       5.01313666E-03
  0.296875000      0.328125000     -0.121036619      0.129694641       2.74912431E-03
  0.328125000      0.328125000     -0.131464839      0.122236326       4.36808506E-04
  0.359375000      0.328125000     -0.140820295      0.112037636      -1.83790736E-03
  0.390625000      0.328125000     -0.149046555       9.92445499E-02  -3.98533000E-03
  0.421875000      0.328125000     -0.156107306       8.40406418E-02  -5.91689581E-03
  0.453125000      0.328125000     -0.161991894       6.66436404E-02  -7.55042210E-03
  0.484375000      0.328125000     -0.166719258       4.73016351E-02  -8.81534629E-03
  0.515625000      0.328125000     -0.170337051       2.62880102E-02  -9.65769310E-03
  0.546875000      0.328125000     -0.172913104       3.89646087E-03  -1.00444220E-02
  0.578125000      0.328125000     -0.174520433      -1.95602365E-02  -9.95948724E-03
  0.609375000      0.328125000     -0.175221413      -4.39143255E-02  -9.31147207E-03
  0.640625000      0.328125000     -0.174999237      -6.90433681E-02  -8.11779406E-03
  0.671875000      0.328125000     -0.173671603      -9.47695225E-02  -6.40709838E-03
  0.703125000      0.328125000     -0.170850322     -0.120748863      -4.22519352E-03
  0.734375000      0.328125000     -0.165923908     -0.146294981      -1.64632779E-03
  0.765625000      0.328125000     -0.158075631     -0.170151651       1.21066079E-03
  0.796875000      0.328125000     -0.146357074     -0.190223753       4.16470412E-03
  0.828125000      0.328125000     -0.129843920     -0.203288168       6.96146628E-03