 VARIABLES="X","Y","U","V","P"
 ZONE F=POINT, I=          16 , J=          16
   3.12500000E-02   3.12500000E-02   2.40857783E-03  -2.41115945E-03   2.64842529E-02
   9.37500000E-02   3.12500000E-02   5.93263609E-03  -1.11895020E-03   2.62177661E-02
  0.156250000       3.12500000E-02   5.58246672E-03   1.46221335E-03   2.56917682E-02
  0.218750000       3.12500000E-02  -5.73049765E-04   4.68648784E-03   2.50011552E-02
  0.281250000       3.12500000E-02  -1.47523005E-02   9.48606711E-03   2.42362358E-02
  0.343750000       3.12500000E-02  -3.81627083E-02   1.39177749E-02   2.36676931E-02
  0.406250000       3.12500000E-02  -6.66092113E-02   1.45222899E-02   2.35255584E-02
  0.468750000       3.12500000E-02  -9.12082717E-02   1.00704441E-02   2.40003653E-02
  0.531250000       3.12500000E-02 -0.103122190       1.83714973E-03   2.53918320E-02
  0.593750000       3.12500000E-02  -9.72212702E-02  -7.74448644E-03   2.77197510E-02
  0.656250000       3.12500000E-02  -7.36583024E-02  -1.58249792E-02   3.01667061E-02
  0.718750000       3.12500000E-02  -3.82368378E-02  -1.96029153E-02   3.11705917E-02
  0.781250000       3.12500000E-02  -2.56345607E-03  -1.60766114E-02   2.99529172E-02
  0.843750000       3.12500000E-02   1.84641182E-02  -4.95675532E-03   2.77617350E-02
  0.906250000       3.12500000E-02   1.81238726E-02   5.29143214E-03   2.63606086E-02
  0.968750000       3.12500000E-02   6.41484186E-03   6.41311705E-03   2.60179006E-02
   3.12500000E-02   9.37500000E-02   7.59464572E-04  -5.58529887E-03   2.67164409E-02
   9.37500000E-02   9.37500000E-02  -2.54252832E-03   1.81916764E-03   2.64105685E-02
  0.156250000       9.37500000E-02  -1.79905482E-02   1.43066766E-02   2.59348713E-02
  0.218750000       9.37500000E-02  -4.87196967E-02   2.87113376E-02   2.52677854E-02
  0.281250000       9.37500000E-02  -9.20151323E-02   4.29209135E-02   2.42519621E-02
  0.343750000       9.37500000E-02 -0.138566583       5.04303016E-02   2.29928643E-02
  0.406250000       9.37500000E-02 -0.177541167       4.54168990E-02   2.18836516E-02
  0.468750000       9.37500000E-02 -0.201719686       2.79399268E-02   2.14766487E-02
  0.531250000       9.37500000E-02 -0.208109528       2.25809636E-03   2.23586410E-02
  0.593750000       9.37500000E-02 -0.195973277      -2.62161158E-02   2.46118717E-02
  0.656250000       9.37500000E-02 -0.165526614      -5.13768122E-02   2.73174942E-02
  0.718750000       9.37500000E-02 -0.119390137      -6.56228885E-02   2.89085545E-02
  0.781250000       9.37500000E-02  -6.52471706E-02  -5.98864183E-02   2.83860080E-02
  0.843750000       9.37500000E-02  -1.74573492E-02  -2.99771652E-02   2.67145280E-02
  0.906250000       9.37500000E-02   5.98852104E-03   7.19378749E-03   2.55958270E-02
  0.968750000       9.37500000E-02   4.68709646E-03   1.75109208E-02   2.53877789E-02
   3.12500000E-02  0.156250000      -5.07774809E-03  -1.27412332E-03   2.73329746E-02
   9.37500000E-02  0.156250000      -2.35410910E-02   1.92574002E-02   2.68472247E-02
  0.156250000      0.156250000      -5.86782731E-02   4.74362224E-02   2.60605142E-02
  0.218750000      0.156250000     -0.107670799       7.52866045E-02   2.46056356E-02
  0.281250000      0.156250000     -0.161876515       9.38308537E-02   2.20966432E-02
  0.343750000      0.156250000     -0.210515350       9.46960151E-02   1.87577382E-02
  0.406250000      0.156250000     -0.246588200       7.61854202E-02   1.55033786E-02
  0.468750000      0.156250000     -0.268127978       4.28777114E-02   1.34427827E-02
  0.531250000      0.156250000     -0.275336266       9.07056034E-04   1.33859459E-02
  0.593750000      0.156250000     -0.268023551      -4.43256125E-02   1.55155193E-02
  0.656250000      0.156250000     -0.244880348      -8.68694335E-02   1.91495232E-02
  0.718750000      0.156250000     -0.203896552     -0.117263541       2.27858946E-02
  0.781250000      0.156250000     -0.144944653     -0.121354036       2.48552151E-02
  0.843750000      0.156250000      -7.59101510E-02  -8.53473470E-02   2.50535365E-02
  0.906250000      0.156250000      -1.96809340E-02  -1.71245951E-02   2.45890152E-02
  0.968750000      0.156250000       6.22519758E-04   2.28157621E-02   2.41155829E-02
   3.12500000E-02  0.218750000      -1.21454410E-02   1.59417801E-02   2.79746335E-02
   9.37500000E-02  0.218750000      -4.52204570E-02   5.35636507E-02   2.71165147E-02
  0.156250000      0.218750000      -9.27288532E-02   9.57581997E-02   2.53524240E-02
  0.218750000      0.218750000     -0.147039741      0.130252033       2.19130740E-02
  0.281250000      0.218750000     -0.198553026      0.144570559       1.65450536E-02
  0.343750000      0.218750000     -0.239465058      0.133496135       1.00968014E-02
  0.406250000      0.218750000     -0.267155796      0.101140812       4.13888507E-03
  0.468750000      0.218750000     -0.283015072       5.53157628E-02   1.00293721E-04
  0.531250000      0.218750000     -0.289597332       2.25521903E-03  -1.19221176E-03
  0.593750000      0.218750000     -0.288499951      -5.40883020E-02   5.21302223E-04
  0.656250000      0.218750000     -0.278668940     -0.110086687       4.94221039E-03
  0.718750000      0.218750000     -0.255073607     -0.158633202       1.10771097E-02
  0.781250000      0.218750000     -0.209672183     -0.184347585       1.72760617E-02
  0.843750000      0.218750000     -0.138054207     -0.163017824       2.15851478E-02
  0.906250000      0.218750000      -5.47711402E-02  -7.89790452E-02   2.30136812E-02
  0.968750000      0.218750000      -6.92459010E-03   1.65090133E-02   2.23404076E-02
   3.12500000E-02  0.281250000      -1.64682604E-02   4.45480347E-02   2.77085416E-02
   9.37500000E-02  0.281250000      -5.66975996E-02   9.82453749E-02   2.62768380E-02
  0.156250000      0.281250000     -0.106269673      0.148140073       2.28972435E-02
  0.218750000      0.281250000     -0.155477077      0.181374252       1.66795328E-02
  0.281250000      0.281250000     -0.196195975      0.185670391       7.98883103E-03
  0.343750000      0.281250000     -0.223830357      0.160937563      -1.44381425E-03
  0.406250000      0.281250000     -0.238909155      0.116468705      -9.54941101E-03
  0.468750000      0.281250000     -0.245435521       6.23772666E-02  -1.49384588E-02
  0.531250000      0.281250000     -0.248218253       4.56459913E-03  -1.70596838E-02
  0.593750000      0.281250000     -0.250501126      -5.52063063E-02  -1.58716291E-02
  0.656250000      0.281250000     -0.252494425     -0.116802618      -1.15126353E-02
  0.718750000      0.281250000     -0.249952555     -0.178054243      -4.24164440E-03
  0.781250000      0.281250000     -0.231985450     -0.228299081       5.17080585E-03
  0.843750000      0.281250000     -0.182987928     -0.239689767       1.45031326E-02
  0.906250000      0.281250000      -9.94455963E-02 -0.169143468       2.00398080E-02
  0.968750000      0.281250000      -2.51046084E-02  -1.55247618E-02   2.06838436E-02
   3.12500000E-02  0.343750000      -1.63619574E-02   7.73708597E-02   2.57166438E-02
   9.37500000E-02  0.343750000      -5.47216013E-02  0.143995523       2.36517340E-02
  0.156250000      0.343750000      -9.81134921E-02  0.195338309       1.85094401E-02
  0.218750000      0.343750000     -0.136594623      0.221853316       9.66527313E-03
  0.281250000      0.343750000     -0.164235532      0.213546157      -1.65198720E-03
  0.343750000      0.343750000     -0.179169893      0.175632775      -1.29075013E-02
  0.406250000      0.343750000     -0.184122145      0.121813789      -2.18671989E-02
  0.468750000      0.343750000     -0.184268594       6.37197122E-02  -2.75304690E-02
  0.531250000      0.343750000     -0.184200644       5.95471170E-03  -2.98238155E-02
  0.593750000      0.343750000     -0.186354041      -5.21422774E-02  -2.89873220E-02
  0.656250000      0.343750000     -0.191706151     -0.112506211      -2.51957402E-02
  0.718750000      0.343750000     -0.199937403     -0.176651329      -1.83544196E-02
  0.781250000      0.343750000     -0.205070555     -0.242532313      -8.26928765E-03
  0.843750000      0.343750000     -0.189029336     -0.290497959       4.38940432E-03
  0.906250000      0.343750000     -0.129267752     -0.261647314       1.56345926E-02
  0.968750000      0.343750000      -4.30027507E-02  -8.36364776E-02   1.98851414E-02
   3.12500000E-02  0.406250000      -1.23045314E-02  0.106030352       2.21790709E-02
   9.37500000E-02  0.406250000      -4.16538492E-02  0.183030128       1.96136609E-02
  0.156250000      0.406250000      -7.40755051E-02  0.232103825       1.30946543E-02
  0.218750000      0.406250000     -0.100467861      0.249953821       2.47616344E-03
  0.281250000      0.406250000     -0.117165290      0.229784697      -1.02571975E-02
  0.343750000      0.406250000     -0.124383748      0.181556910      -2.21006889E-02
  0.406250000      0.406250000     -0.125831008      0.122307822      -3.09813470E-02
  0.468750000      0.406250000     -0.126031607       6.35983050E-02  -3.63905095E-02
  0.531250000      0.406250000     -0.127334103       7.34015089E-03  -3.86092179E-02
  0.593750000      0.406250000     -0.129756555      -4.89221402E-02  -3.79360951E-02
  0.656250000      0.406250000     -0.133383095     -0.106721431      -3.45276371E-02
  0.718750000      0.406250000     -0.140080720     -0.167487413      -2.84027439E-02
  0.781250000      0.406250000     -0.151373222     -0.235258892      -1.92476641E-02
  0.843750000      0.406250000     -0.157542825     -0.307639718      -6.29920093E-03
  0.906250000      0.406250000     -0.128188267     -0.333625853       8.88435636E-03
  0.968750000      0.406250000      -4.97378483E-02 -0.176380843       1.73171144E-02
   3.12500000E-02  0.468750000      -5.72309271E-03  0.124051586       1.81904770E-02
   9.37500000E-02  0.468750000      -2.17860397E-02  0.210407883       1.53530268E-02
  0.156250000      0.468750000      -4.12135944E-02  0.256564260       8.08588043E-03
  0.218750000      0.468750000      -5.63173294E-02  0.266985595      -3.31453630E-03
  0.281250000      0.468750000      -6.51754439E-02  0.238314211      -1.64563768E-02
  0.343750000      0.468750000      -6.89497292E-02  0.184036523      -2.82251202E-02
  0.406250000      0.468750000      -7.06681907E-02  0.123020425      -3.68168578E-02
  0.468750000      0.468750000      -7.30093345E-02   6.54620007E-02  -4.20457534E-02
  0.531250000      0.468750000      -7.66517669E-02   1.04606161E-02  -4.42772880E-02
  0.593750000      0.468750000      -8.08741823E-02  -4.53580990E-02  -4.36988436E-02
  0.656250000      0.468750000      -8.49612057E-02 -0.102536209      -4.03857864E-02
  0.718750000      0.468750000      -8.93754065E-02 -0.160532594      -3.45394909E-02
  0.781250000      0.468750000      -9.76229459E-02 -0.222654998      -2.63284259E-02
  0.843750000      0.468750000     -0.110575818     -0.301112235      -1.50192939E-02
  0.906250000      0.468750000     -0.104486167     -0.375597268       2.96573737E-04
  0.968750000      0.468750000      -4.56145629E-02 -0.271735936       1.11537427E-02
   3.12500000E-02  0.531250000       2.04002229E-03  0.127728790       1.49376243E-02
   9.37500000E-02  0.531250000       8.67211493E-04  0.223954499       1.20560052E-02
  0.156250000      0.531250000      -5.34812547E-03  0.268651485       4.69740573E-03
  0.218750000      0.531250000      -1.01205809E-02  0.274773240      -6.65081851E-03
  0.281250000      0.531250000      -1.28527451E-02  0.242125869      -1.95989273E-02
  0.343750000      0.531250000      -1.47204874E-02  0.185887411      -3.11348997E-02
  0.406250000      0.531250000      -1.70124434E-02  0.125211373      -3.95876393E-02
  0.468750000      0.531250000      -2.03320272E-02   6.89719170E-02  -4.48241644E-02
  0.531250000      0.531250000      -2.47304402E-02   1.50367962E-02  -4.71391343E-02
  0.593750000      0.531250000      -3.02764140E-02  -4.01201025E-02  -4.66187783E-02
  0.656250000      0.531250000      -3.67118232E-02  -9.72101539E-02  -4.32916284E-02
  0.718750000      0.531250000      -4.32518423E-02 -0.154870898      -3.74143235E-02
  0.781250000      0.531250000      -5.10901287E-02 -0.212207749      -2.96122413E-02
  0.843750000      0.531250000      -6.52362704E-02 -0.284447849      -2.00988278E-02
  0.906250000      0.531250000      -7.36763328E-02 -0.389907539      -7.16942083E-03
  0.968750000      0.531250000      -3.63116004E-02 -0.353663683       3.68322432E-03
   3.12500000E-02  0.593750000       9.08887666E-03  0.116594285       1.29002789E-02
   9.37500000E-02  0.593750000       2.22912803E-02  0.223048046       1.03836441E-02
  0.156250000      0.593750000       2.92094573E-02  0.268846661       3.56692914E-03
  0.218750000      0.593750000       3.44817713E-02  0.274077535      -7.03915209E-03
  0.281250000      0.593750000       3.81554514E-02  0.241889805      -1.94107853E-02
  0.343750000      0.593750000       3.89790125E-02  0.187189013      -3.07524763E-02
  0.406250000      0.593750000       3.71568128E-02  0.128056347      -3.93014774E-02
  0.468750000      0.593750000       3.37777808E-02   7.28668645E-02  -4.47091535E-02
  0.531250000      0.593750000       2.92420443E-02   2.01225039E-02  -4.71252277E-02
  0.593750000      0.593750000       2.29445323E-02  -3.33152711E-02  -4.65910770E-02
  0.656250000      0.593750000       1.43618844E-02  -8.89541283E-02  -4.31359783E-02
  0.718750000      0.593750000       3.76754627E-03 -0.145958081      -3.70562561E-02
  0.781250000      0.593750000      -8.50857235E-03 -0.200982407      -2.92249434E-02
  0.843750000      0.593750000      -2.59659439E-02 -0.264056683      -2.07977612E-02
  0.906250000      0.593750000      -4.48200144E-02 -0.383000284      -1.06505537E-02
  0.968750000      0.593750000      -2.63900347E-02 -0.416366458      -1.25483330E-03
   3.12500000E-02  0.656250000       1.36130620E-02   9.38867182E-02   1.19741708E-02
   9.37500000E-02  0.656250000       3.83894518E-02  0.207765236       1.02324011E-02
  0.156250000      0.656250000       5.82055934E-02  0.257385999       4.71936865E-03
  0.218750000      0.656250000       7.40958378E-02  0.264373600      -4.45678132E-03
  0.281250000      0.656250000       8.59659761E-02  0.236057609      -1.58427507E-02
  0.343750000      0.656250000       9.21974778E-02  0.185984850      -2.69617271E-02
  0.406250000      0.656250000       9.32719707E-02  0.130037576      -3.58238146E-02
  0.468750000      0.656250000       9.10528302E-02   7.65217990E-02  -4.16307226E-02
  0.531250000      0.656250000       8.65180567E-02   2.55811214E-02  -4.42472100E-02
  0.593750000      0.656250000       7.92371035E-02  -2.51519531E-02  -4.36508879E-02
  0.656250000      0.656250000       6.82855248E-02  -7.75441080E-02  -3.98863964E-02
  0.718750000      0.656250000       5.29848635E-02 -0.131442353      -3.33556421E-02
  0.781250000      0.656250000       3.32112759E-02 -0.183428392      -2.51671653E-02
  0.843750000      0.656250000       8.40941910E-03 -0.239342108      -1.69565547E-02
  0.906250000      0.656250000      -2.03661006E-02 -0.360084116      -8.84883013E-03
  0.968750000      0.656250000      -1.76616255E-02 -0.460420102      -1.05316285E-03
   3.12500000E-02  0.718750000       1.41961006E-02   6.60717189E-02   1.17882285E-02
   9.37500000E-02  0.718750000       4.51549850E-02  0.179832578       1.11064725E-02
  0.156250000      0.718750000       7.67046288E-02  0.233941913       7.74980616E-03
  0.218750000      0.718750000      0.104460150      0.244166687       8.04408395E-04
  0.281250000      0.718750000      0.127205789      0.221651837      -9.10681020E-03
  0.343750000      0.718750000      0.142650038      0.178727895      -1.98557489E-02
  0.406250000      0.718750000      0.150413141      0.128479794      -2.91540511E-02
  0.468750000      0.718750000      0.151983798       7.87590072E-02  -3.56003456E-02
  0.531250000      0.718750000      0.148621857       3.12763229E-02  -3.86147946E-02
  0.593750000      0.718750000      0.140301377      -1.52097251E-02  -3.80057767E-02
  0.656250000      0.718750000      0.126056850      -6.22587055E-02  -3.38253453E-02
  0.718750000      0.718750000      0.104619518     -0.109966636      -2.65986025E-02
  0.781250000      0.718750000       7.55405426E-02 -0.156039089      -1.76919922E-02
  0.843750000      0.718750000       4.02103178E-02 -0.206597328      -9.10979975E-03
  0.906250000      0.718750000       6.25140965E-04 -0.324473917      -1.73848204E-03
  0.968750000      0.718750000      -1.00161098E-02 -0.488101840       5.39239682E-03
   3.12500000E-02  0.781250000       1.01652667E-02   4.17042449E-02   1.21182203E-02
   9.37500000E-02  0.781250000       3.89976203E-02  0.144395381       1.25884721E-02
  0.156250000      0.781250000       7.82713592E-02  0.198542297       1.21121779E-02
  0.218750000      0.781250000      0.118737593      0.211334884       8.10986664E-03
  0.281250000      0.781250000      0.155248255      0.195224106       7.96859022E-05
  0.343750000      0.781250000      0.183696941      0.161267877      -1.01201730E-02
  0.406250000      0.781250000      0.202245176      0.119642518      -1.98680684E-02
  0.468750000      0.781250000      0.211245000       7.70474076E-02  -2.71312110E-02
  0.531250000      0.781250000      0.211597502       3.60233784E-02  -3.07889283E-02
  0.593750000      0.781250000      0.203437477      -3.45006585E-03  -3.03700622E-02
  0.656250000      0.781250000      0.185932517      -4.22472134E-02  -2.58704759E-02
  0.718750000      0.781250000      0.157741487      -8.03364813E-02  -1.79246310E-02
  0.781250000      0.781250000      0.118753068     -0.117599219      -8.04061256E-03
  0.843750000      0.781250000       7.21868277E-02 -0.163148463       1.70980452E-03
  0.906250000      0.781250000       2.21243538E-02 -0.278290361       1.03761964E-02
  0.968750000      0.781250000      -1.70541927E-03 -0.499830335       1.88515559E-02
   3.12500000E-02  0.843750000       2.44724844E-03   2.90852822E-02   1.28283361E-02
   9.37500000E-02  0.843750000       2.03104541E-02  0.110304162       1.44671481E-02
  0.156250000      0.843750000       6.08088076E-02  0.152845293       1.73439868E-02
  0.218750000      0.843750000      0.113341078      0.164018884       1.64514557E-02
  0.281250000      0.843750000      0.165450007      0.153910384       1.02612711E-02
  0.343750000      0.843750000      0.209235787      0.130343810       6.00993051E-04
  0.406250000      0.843750000      0.241031274      0.100227445      -9.58318263E-03
  0.468750000      0.843750000      0.259983301       6.85222596E-02  -1.77477002E-02
  0.531250000      0.843750000      0.266409278       3.77859212E-02  -2.22827345E-02
  0.593750000      0.843750000      0.260610938       8.76185205E-03  -2.24072784E-02
  0.656250000      0.843750000      0.242026031      -1.83575787E-02  -1.79587211E-02
  0.718750000      0.843750000      0.210097119      -4.41027656E-02  -9.59251728E-03
  0.781250000      0.843750000      0.166230828      -7.09853321E-02   1.48488930E-03
  0.843750000      0.843750000      0.114383101     -0.111365810       1.39003452E-02
  0.906250000      0.843750000       5.57134449E-02 -0.221365869       2.78790481E-02
  0.968750000      0.843750000       1.21551389E-02 -0.489390790       4.29916047E-02
   3.12500000E-02  0.906250000      -2.96410397E-02   5.62722310E-02   1.39428796E-02
   9.37500000E-02  0.906250000      -4.42005396E-02   7.97976032E-02   1.74719635E-02
  0.156250000      0.906250000       3.65872867E-03   9.49754938E-02   2.31533423E-02
  0.218750000      0.906250000       7.21589997E-02  0.100837305       2.42520794E-02
  0.281250000      0.906250000      0.140481532       9.66443419E-02   1.89936403E-02
  0.343750000      0.906250000      0.199742690       8.45522508E-02   9.50292498E-03
  0.406250000      0.906250000      0.246004134       6.79585114E-02  -1.12071983E-03
  0.468750000      0.906250000      0.278006762       4.98396568E-02  -1.01044476E-02
  0.531250000      0.906250000      0.295961946       3.20947655E-02  -1.55571718E-02
  0.593750000      0.906250000      0.300631881       1.55892717E-02  -1.64970215E-02
  0.656250000      0.906250000      0.293259025       7.76654808E-04  -1.26853688E-02
  0.718750000      0.906250000      0.275154591      -1.32076815E-02  -4.11565322E-03
  0.781250000      0.906250000      0.246615052      -2.94888355E-02   8.81942268E-03
  0.843750000      0.906250000      0.206444621      -6.08686581E-02   2.69651003E-02
  0.906250000      0.906250000      0.141611546     -0.148392498       5.43733835E-02
  0.968750000      0.906250000       5.00119291E-02 -0.427236259       9.15459916E-02
   3.12500000E-02  0.968750000       4.29526046E-02   4.29548733E-02   7.29837827E-03
   9.37500000E-02  0.968750000      0.118257418       3.23556587E-02   2.00039763E-02
  0.156250000      0.968750000      0.181702048       3.10962703E-02   2.74080411E-02
  0.218750000      0.968750000      0.245345384       3.25548165E-02   2.89260820E-02
  0.281250000      0.968750000      0.309913039       3.20200734E-02   2.41298079E-02
  0.343750000      0.968750000      0.370871663       2.89442074E-02   1.49244964E-02
  0.406250000      0.968750000      0.423991114       2.41786931E-02   4.22661193E-03
  0.468750000      0.968750000      0.466887474       1.87189542E-02  -5.16702933E-03
  0.531250000      0.968750000      0.498878241       1.32716270E-02  -1.12168910E-02
  0.593750000      0.968750000      0.520386875       8.23654793E-03  -1.27622802E-02
  0.656250000      0.968750000      0.532255769       3.63305002E-03  -9.30068269E-03
  0.718750000      0.968750000      0.535087526      -7.98051711E-04  -4.87723359E-04
  0.781250000      0.968750000      0.527998209      -6.28466252E-03   1.50647834E-02
  0.843750000      0.968750000      0.502887905      -1.88156478E-02   4.29786183E-02
  0.906250000      0.968750000      0.430652678      -5.34071028E-02  0.101349957    
  0.968750000      0.968750000      0.188619465     -0.188615531      0.231285691    
