 VARIABLES="X","Y","U","V","P"
 ZONE F=POINT, I=         128 , J=         128
   3.90625000E-03   3.90625000E-03   2.28772228E-06  -2.69863654E-06   3.27050015E-02
   1.17187500E-02   3.90625000E-03   1.23112859E-05  -8.29253622E-06   3.27065699E-02
   1.95312500E-02   3.90625000E-03   3.03474189E-05  -1.08547711E-05   3.27056497E-02
   2.73437500E-02   3.90625000E-03   5.10003229E-05  -1.09032435E-05   3.27012390E-02
   3.51562500E-02   3.90625000E-03   7.01578101E-05  -9.36031847E-06   3.26932780E-02
   4.29687500E-02   3.90625000E-03   8.53511010E-05  -6.94058144E-06   3.26820984E-02
   5.07812500E-02   3.90625000E-03   9.53012423E-05  -4.11818473E-06   3.26681286E-02
   5.85937500E-02   3.90625000E-03   9.95018054E-05  -1.19646052E-06   3.26518081E-02
   6.64062500E-02   3.90625000E-03   9.79334072E-05   1.65364463E-06   3.26335132E-02
   7.42187500E-02   3.90625000E-03   9.08510920E-05   4.32592196E-06   3.26135457E-02
   8.20312500E-02   3.90625000E-03   7.86413584E-05   6.77701291E-06   3.25921327E-02
   8.98437500E-02   3.90625000E-03   6.17515179E-05   9.00391206E-06   3.25694606E-02
   9.76562500E-02   3.90625000E-03   4.06254985E-05   1.10223227E-05   3.25456336E-02
  0.105468750       3.90625000E-03   1.56398837E-05   1.28667889E-05   3.25207114E-02
  0.113281250       3.90625000E-03  -1.28956517E-05   1.45791291E-05   3.24947275E-02
  0.121093750       3.90625000E-03  -4.47624116E-05   1.62030829E-05   3.24676856E-02
  0.128906250       3.90625000E-03  -7.98371475E-05   1.77892653E-05   3.24395820E-02
  0.136718750       3.90625000E-03  -1.18077165E-04   1.93788474E-05   3.24103944E-02
  0.144531250       3.90625000E-03  -1.59533607E-04   2.10104317E-05   3.23800892E-02
  0.152343750       3.90625000E-03  -2.04329393E-04   2.27188902E-05   3.23486589E-02
  0.160156250       3.90625000E-03  -2.52641214E-04   2.45358788E-05   3.23160924E-02
  0.167968750       3.90625000E-03  -3.04710993E-04   2.64772534E-05   3.22823897E-02
  0.175781250       3.90625000E-03  -3.60809034E-04   2.85716942E-05   3.22475806E-02
  0.183593750       3.90625000E-03  -4.21232136E-04   3.08165436E-05   3.22116837E-02
  0.191406250       3.90625000E-03  -4.86305857E-04   3.32214076E-05   3.21747512E-02
  0.199218750       3.90625000E-03  -5.56342653E-04   3.57914541E-05   3.21368575E-02
  0.207031250       3.90625000E-03  -6.31664821E-04   3.85185631E-05   3.20980698E-02
  0.214843750       3.90625000E-03  -7.12593377E-04   4.13972812E-05   3.20584998E-02
  0.222656250       3.90625000E-03  -7.99422560E-04   4.44235266E-05   3.20182666E-02
  0.230468750       3.90625000E-03  -8.92416749E-04   4.75806119E-05   3.19775119E-02
  0.238281250       3.90625000E-03  -9.91829438E-04   5.08484482E-05   3.19363698E-02
  0.246093750       3.90625000E-03  -1.09788403E-03   5.42183152E-05   3.18950266E-02
  0.253906250       3.90625000E-03  -1.21074263E-03   5.76737875E-05   3.18536721E-02
  0.261718750       3.90625000E-03  -1.33055239E-03   6.11844953E-05   3.18125002E-02
  0.269531250       3.90625000E-03  -1.45742320E-03   6.47317574E-05   3.17717455E-02
  0.277343750       3.90625000E-03  -1.59139140E-03   6.82950777E-05   3.17316614E-02
  0.285156250       3.90625000E-03  -1.73244858E-03   7.18379597E-05   3.16925012E-02
  0.292968750       3.90625000E-03  -1.88053446E-03   7.53336790E-05   3.16545516E-02
  0.300781250       3.90625000E-03  -2.03551771E-03   7.87456811E-05   3.16181183E-02
  0.308593750       3.90625000E-03  -2.19719158E-03   8.20436253E-05   3.15835327E-02
  0.316406250       3.90625000E-03  -2.36528134E-03   8.51708610E-05   3.15511301E-02
  0.324218750       3.90625000E-03  -2.53942749E-03   8.81015221E-05   3.15212831E-02
  0.332031250       3.90625000E-03  -2.71916995E-03   9.07776848E-05   3.14943753E-02
  0.339843750       3.90625000E-03  -2.90395319E-03   9.31537361E-05   3.14708017E-02
  0.347656250       3.90625000E-03  -3.09311738E-03   9.51765396E-05   3.14509645E-02
  0.355468750       3.90625000E-03  -3.28590069E-03   9.67860833E-05   3.14352736E-02
  0.363281250       3.90625000E-03  -3.48143466E-03   9.79261094E-05   3.14241499E-02
  0.371093750       3.90625000E-03  -3.67871788E-03   9.85452207E-05   3.14180106E-02
  0.378906250       3.90625000E-03  -3.87663953E-03   9.85746738E-05   3.14172469E-02
  0.386718750       3.90625000E-03  -4.07397281E-03   9.79651522E-05   3.14222574E-02
  0.394531250       3.90625000E-03  -4.26937919E-03   9.66554217E-05   3.14333811E-02
  0.402343750       3.90625000E-03  -4.46141418E-03   9.45977008E-05   3.14509496E-02
  0.410156250       3.90625000E-03  -4.64852713E-03   9.17357829E-05   3.14752385E-02
  0.417968750       3.90625000E-03  -4.82906541E-03   8.80313019E-05   3.15064862E-02
  0.425781250       3.90625000E-03  -5.00129908E-03   8.34393577E-05   3.15448344E-02
  0.433593750       3.90625000E-03  -5.16344327E-03   7.79370312E-05   3.15903798E-02
  0.441406250       3.90625000E-03  -5.31364419E-03   7.15034475E-05   3.16431224E-02
  0.449218750       3.90625000E-03  -5.45003079E-03   6.41236475E-05   3.17029580E-02
  0.457031250       3.90625000E-03  -5.57072833E-03   5.58042084E-05   3.17696929E-02
  0.464843750       3.90625000E-03  -5.67386393E-03   4.65567682E-05   3.18430252E-02
  0.472656250       3.90625000E-03  -5.75761031E-03   3.64122861E-05   3.19225192E-02
  0.480468750       3.90625000E-03  -5.82021568E-03   2.54078677E-05   3.20076235E-02
  0.488281250       3.90625000E-03  -5.86002134E-03   1.36086237E-05   3.20976675E-02
  0.496093750       3.90625000E-03  -5.87550970E-03   1.07986546E-06   3.21918391E-02
  0.503906250       3.90625000E-03  -5.86532336E-03  -1.20835630E-05   3.22892219E-02
  0.511718750       3.90625000E-03  -5.82828000E-03  -2.57817519E-05   3.23887691E-02
  0.519531250       3.90625000E-03  -5.76343853E-03  -3.98972697E-05   3.24893184E-02
  0.527343750       3.90625000E-03  -5.67010045E-03  -5.42955095E-05   3.25896218E-02
  0.535156250       3.90625000E-03  -5.54783782E-03  -6.88358268E-05   3.26883309E-02
  0.542968750       3.90625000E-03  -5.39652072E-03  -8.33612139E-05   3.27840373E-02
  0.550781250       3.90625000E-03  -5.21633495E-03  -9.77098680E-05   3.28752697E-02
  0.558593750       3.90625000E-03  -5.00781462E-03  -1.11715031E-04   3.29605266E-02
  0.566406250       3.90625000E-03  -4.77182772E-03  -1.25199847E-04   3.30383368E-02
  0.574218750       3.90625000E-03  -4.50957194E-03  -1.37992669E-04   3.31072323E-02
  0.582031250       3.90625000E-03  -4.22259793E-03  -1.49925560E-04   3.31657939E-02
  0.589843750       3.90625000E-03  -3.91279254E-03  -1.60830561E-04   3.32126804E-02
  0.597656250       3.90625000E-03  -3.58237000E-03  -1.70557672E-04   3.32466587E-02
  0.605468750       3.90625000E-03  -3.23383743E-03  -1.78960021E-04   3.32666337E-02
  0.613281250       3.90625000E-03  -2.86996015E-03  -1.85907993E-04   3.32716741E-02
  0.621093750       3.90625000E-03  -2.49373773E-03  -1.91300904E-04   3.32610197E-02
  0.628906250       3.90625000E-03  -2.10838229E-03  -1.95047236E-04   3.32341008E-02
  0.636718750       3.90625000E-03  -1.71724311E-03  -1.97086483E-04   3.31905857E-02
  0.644531250       3.90625000E-03  -1.32376561E-03  -1.97387504E-04   3.31303515E-02
  0.652343750       3.90625000E-03  -9.31442715E-04  -1.95934059E-04   3.30535248E-02
  0.660156250       3.90625000E-03  -5.43743838E-04  -1.92748994E-04   3.29604484E-02
  0.667968750       3.90625000E-03  -1.64097233E-04  -1.87880374E-04   3.28516811E-02
  0.675781250       3.90625000E-03   2.04198732E-04  -1.81398122E-04   3.27280313E-02
  0.683593750       3.90625000E-03   5.58030792E-04  -1.73406006E-04   3.25904824E-02
  0.691406250       3.90625000E-03   8.94502504E-04  -1.64021621E-04   3.24402079E-02
  0.699218750       3.90625000E-03   1.21097290E-03  -1.53392961E-04   3.22785303E-02
  0.707031250       3.90625000E-03   1.50511239E-03  -1.41681681E-04   3.21069285E-02
  0.714843750       3.90625000E-03   1.77493354E-03  -1.29058171E-04   3.19269560E-02
  0.722656250       3.90625000E-03   2.01880094E-03  -1.15715637E-04   3.17402482E-02
  0.730468750       3.90625000E-03   2.23546149E-03  -1.01833779E-04   3.15484777E-02
  0.738281250       3.90625000E-03   2.42403895E-03  -8.76124395E-05   3.13533247E-02
  0.746093750       3.90625000E-03   2.58404296E-03  -7.32393528E-05   3.11564449E-02
  0.753906250       3.90625000E-03   2.71534827E-03  -5.88982621E-05   3.09594385E-02
  0.761718750       3.90625000E-03   2.81818816E-03  -4.47572311E-05   3.07638422E-02
  0.769531250       3.90625000E-03   2.89313076E-03  -3.09793431E-05   3.05710845E-02
  0.777343750       3.90625000E-03   2.94103660E-03  -1.77060774E-05   3.03824805E-02
  0.785156250       3.90625000E-03   2.96303630E-03  -5.05877415E-06   3.01992130E-02
  0.792968750       3.90625000E-03   2.96048634E-03   6.85888108E-06   3.00223194E-02
  0.800781250       3.90625000E-03   2.93493201E-03   1.79590679E-05   2.98527032E-02
  0.808593750       3.90625000E-03   2.88806483E-03   2.81862303E-05   2.96911113E-02
  0.816406250       3.90625000E-03   2.82167876E-03   3.74959600E-05   2.95381453E-02
  0.824218750       3.90625000E-03   2.73762760E-03   4.58656978E-05   2.93942597E-02
  0.832031250       3.90625000E-03   2.63779005E-03   5.32923877E-05   2.92597897E-02
  0.839843750       3.90625000E-03   2.52403761E-03   5.97888866E-05   2.91349366E-02
  0.847656250       3.90625000E-03   2.39820080E-03   6.53857351E-05   2.90198009E-02
  0.855468750       3.90625000E-03   2.26204423E-03   7.01150493E-05   2.89143845E-02
  0.863281250       3.90625000E-03   2.11725803E-03   7.40257528E-05   2.88186222E-02
  0.871093750       3.90625000E-03   1.96543871E-03   7.71608757E-05   2.87323780E-02
  0.878906250       3.90625000E-03   1.80808804E-03   7.95651722E-05   2.86554806E-02
  0.886718750       3.90625000E-03   1.64662721E-03   8.12764411E-05   2.85877176E-02
  0.894531250       3.90625000E-03   1.48241688E-03   8.23137743E-05   2.85288859E-02
  0.902343750       3.90625000E-03   1.31680339E-03   8.26820542E-05   2.84787696E-02
  0.910156250       3.90625000E-03   1.15115661E-03   8.23496157E-05   2.84371637E-02
  0.917968750       3.90625000E-03   9.86943836E-04   8.12505750E-05   2.84038745E-02
  0.925781250       3.90625000E-03   8.25819268E-04   7.92666542E-05   2.83787176E-02
  0.933593750       3.90625000E-03   6.69727393E-04   7.62228810E-05   2.83614881E-02
  0.941406250       3.90625000E-03   5.21023176E-04   7.18795854E-05   2.83519384E-02
  0.949218750       3.90625000E-03   3.82615108E-04   6.59216748E-05   2.83497162E-02
  0.957031250       3.90625000E-03   2.58105138E-04   5.79805455E-05   2.83542722E-02
  0.964843750       3.90625000E-03   1.51860833E-04   4.76591740E-05   2.83646956E-02
  0.972656250       3.90625000E-03   6.89028457E-05   3.46912384E-05   2.83795036E-02
  0.980468750       3.90625000E-03   1.42692325E-05   1.93329706E-05   2.83963270E-02
  0.988281250       3.90625000E-03  -9.12068117E-06   3.45275976E-06   2.84115300E-02
  0.996093750       3.90625000E-03  -6.43655039E-06  -6.62953835E-06   2.84200870E-02
   3.90625000E-03   1.17187500E-02   7.55764631E-06  -1.35069349E-05   3.27035673E-02
   1.17187500E-02   1.17187500E-02   3.15353172E-05  -3.37101446E-05   3.27051058E-02
   1.95312500E-02   1.17187500E-02   6.78614961E-05  -4.23125784E-05   3.27038392E-02
   2.73437500E-02   1.17187500E-02   1.06760643E-04  -4.14956703E-05   3.26994583E-02
   3.51562500E-02   1.17187500E-02   1.40698801E-04  -3.43695356E-05   3.26919705E-02
   4.29687500E-02   1.17187500E-02   1.64586148E-04  -2.35190946E-05   3.26815993E-02
   5.07812500E-02   1.17187500E-02   1.75392706E-04  -1.08112345E-05   3.26686427E-02
   5.85937500E-02   1.17187500E-02   1.71660795E-04   2.51235360E-06   3.26534510E-02
   6.64062500E-02   1.17187500E-02   1.53018715E-04   1.56527331E-05   3.26362997E-02
   7.42187500E-02   1.17187500E-02   1.19783406E-04   2.81448865E-05   3.26174609E-02
   8.20312500E-02   1.17187500E-02   7.26862054E-05   3.97611002E-05   3.25971358E-02
   8.98437500E-02   1.17187500E-02   1.26371478E-05   5.04511336E-05   3.25754881E-02
   9.76562500E-02   1.17187500E-02  -5.94249614E-05   6.02728396E-05   3.25526260E-02
  0.105468750       1.17187500E-02  -1.42656223E-04   6.93555630E-05   3.25286165E-02
  0.113281250       1.17187500E-02  -2.36363150E-04   7.78698668E-05   3.25035006E-02
  0.121093750       1.17187500E-02  -3.40047380E-04   8.60173823E-05   3.24773043E-02
  0.128906250       1.17187500E-02  -4.53438028E-04   9.40013488E-05   3.24500240E-02
  0.136718750       1.17187500E-02  -5.76475868E-04   1.02017002E-04   3.24216634E-02
  0.144531250       1.17187500E-02  -7.09304528E-04   1.10236571E-04   3.23922075E-02
  0.152343750       1.17187500E-02  -8.52249505E-04   1.18822165E-04   3.23616602E-02
  0.160156250       1.17187500E-02  -1.00579788E-03   1.27900013E-04   3.23300138E-02
  0.167968750       1.17187500E-02  -1.17056607E-03   1.37569747E-04   3.22972909E-02
  0.175781250       1.17187500E-02  -1.34727859E-03   1.47916813E-04   3.22635025E-02
  0.183593750       1.17187500E-02  -1.53673068E-03   1.58981857E-04   3.22287008E-02
  0.191406250       1.17187500E-02  -1.73974340E-03   1.70791915E-04   3.21929343E-02
  0.199218750       1.17187500E-02  -1.95715949E-03   1.83353608E-04   3.21562663E-02
  0.207031250       1.17187500E-02  -2.18982203E-03   1.96645909E-04   3.21187712E-02
  0.214843750       1.17187500E-02  -2.43854010E-03   2.10637314E-04   3.20805572E-02
  0.222656250       1.17187500E-02  -2.70408019E-03   2.25281256E-04   3.20417248E-02
  0.230468750       1.17187500E-02  -2.98713753E-03   2.40517969E-04   3.20024192E-02
  0.238281250       1.17187500E-02  -3.28831747E-03   2.56271305E-04   3.19627821E-02
  0.246093750       1.17187500E-02  -3.60813458E-03   2.72456789E-04   3.19229737E-02
  0.253906250       1.17187500E-02  -3.94699071E-03   2.88977433E-04   3.18831652E-02
  0.261718750       1.17187500E-02  -4.30517504E-03   3.05724185E-04   3.18435580E-02
  0.269531250       1.17187500E-02  -4.68283566E-03   3.22583976E-04   3.18043679E-02
  0.277343750       1.17187500E-02  -5.07996976E-03   3.39426828E-04   3.17658223E-02
  0.285156250       1.17187500E-02  -5.49640693E-03   3.56107950E-04   3.17281783E-02
  0.292968750       1.17187500E-02  -5.93180023E-03   3.72472685E-04   3.16917002E-02
  0.300781250       1.17187500E-02  -6.38559740E-03   3.88349581E-04   3.16566825E-02
  0.308593750       1.17187500E-02  -6.85705012E-03   4.03554703E-04   3.16234156E-02
  0.316406250       1.17187500E-02  -7.34517304E-03   4.17883741E-04   3.15922499E-02
  0.324218750       1.17187500E-02  -7.84873869E-03   4.31132008E-04   3.15635055E-02
  0.332031250       1.17187500E-02  -8.36626813E-03   4.43067111E-04   3.15375626E-02
  0.339843750       1.17187500E-02  -8.89599416E-03   4.53453336E-04   3.15147825E-02
  0.347656250       1.17187500E-02  -9.43587627E-03   4.62035561E-04   3.14955488E-02
  0.355468750       1.17187500E-02  -9.98358149E-03   4.68547805E-04   3.14802527E-02
  0.363281250       1.17187500E-02  -1.05364788E-02   4.72735148E-04   3.14692929E-02
  0.371093750       1.17187500E-02  -1.10916346E-02   4.74331522E-04   3.14630531E-02
  0.378906250       1.17187500E-02  -1.16458079E-02   4.73065971E-04   3.14619169E-02
  0.386718750       1.17187500E-02  -1.21954698E-02   4.68683138E-04   3.14662419E-02
  0.394531250       1.17187500E-02  -1.27368271E-02   4.60932730E-04   3.14763635E-02
  0.402343750       1.17187500E-02  -1.32658221E-02   4.49586660E-04   3.14925835E-02
  0.410156250       1.17187500E-02  -1.37781529E-02   4.34428861E-04   3.15151736E-02
  0.417968750       1.17187500E-02  -1.42693091E-02   4.15284361E-04   3.15443501E-02
  0.425781250       1.17187500E-02  -1.47346184E-02   3.91998736E-04   3.15802619E-02
  0.433593750       1.17187500E-02  -1.51692824E-02   3.64459382E-04   3.16229835E-02
  0.441406250       1.17187500E-02  -1.55684315E-02   3.32609721E-04   3.16725150E-02
  0.449218750       1.17187500E-02  -1.59271695E-02   2.96421524E-04   3.17287669E-02
  0.457031250       1.17187500E-02  -1.62406433E-02   2.55938881E-04   3.17915455E-02
  0.464843750       1.17187500E-02  -1.65041015E-02   2.11260616E-04   3.18605676E-02
  0.472656250       1.17187500E-02  -1.67129524E-02   1.62542521E-04   3.19354124E-02
  0.480468750       1.17187500E-02  -1.68628506E-02   1.10003086E-04   3.20155621E-02
  0.488281250       1.17187500E-02  -1.69497617E-02   5.39411449E-05   3.21003608E-02
  0.496093750       1.17187500E-02  -1.69700421E-02  -5.29467570E-06   3.21890451E-02
  0.503906250       1.17187500E-02  -1.69205107E-02  -6.72703463E-05   3.22807319E-02
  0.511718750       1.17187500E-02  -1.67985000E-02  -1.31506531E-04   3.23744193E-02
  0.519531250       1.17187500E-02  -1.66019481E-02  -1.97453366E-04   3.24689969E-02
  0.527343750       1.17187500E-02  -1.63294524E-02  -2.64503295E-04   3.25632691E-02
  0.535156250       1.17187500E-02  -1.59802996E-02  -3.31997871E-04   3.26559469E-02
  0.542968750       1.17187500E-02  -1.55545473E-02  -3.99242272E-04   3.27456743E-02
  0.550781250       1.17187500E-02  -1.50530469E-02  -4.65505931E-04   3.28310430E-02
  0.558593750       1.17187500E-02  -1.44774765E-02  -5.30040707E-04   3.29106227E-02
  0.566406250       1.17187500E-02  -1.38303433E-02  -5.92072844E-04   3.29829901E-02
  0.574218750       1.17187500E-02  -1.31149888E-02  -6.50840753E-04   3.30467448E-02
  0.582031250       1.17187500E-02  -1.23355705E-02  -7.05597224E-04   3.31005342E-02
  0.589843750       1.17187500E-02  -1.14970636E-02  -7.55621761E-04   3.31430621E-02
  0.597656250       1.17187500E-02  -1.06051993E-02  -8.00236594E-04   3.31731625E-02
  0.605468750       1.17187500E-02  -9.66640003E-03  -8.38822685E-04   3.31897810E-02
  0.613281250       1.17187500E-02  -8.68772995E-03  -8.70822521E-04   3.31920199E-02
  0.621093750       1.17187500E-02  -7.67678814E-03  -8.95773643E-04   3.31791714E-02
  0.628906250       1.17187500E-02  -6.64165057E-03  -9.13302531E-04   3.31506804E-02
  0.636718750       1.17187500E-02  -5.59074758E-03  -9.23132931E-04   3.31062414E-02
  0.644531250       1.17187500E-02  -4.53272182E-03  -9.25106346E-04   3.30457576E-02
  0.652343750       1.17187500E-02  -3.47633846E-03  -9.19179991E-04   3.29693407E-02
  0.660156250       1.17187500E-02  -2.43035005E-03  -9.05423076E-04   3.28773335E-02
  0.667968750       1.17187500E-02  -1.40337856E-03  -8.84048932E-04   3.27702872E-02
  0.675781250       1.17187500E-02  -4.03775950E-04  -8.55352206E-04   3.26489843E-02
  0.683593750       1.17187500E-02   5.60510030E-04  -8.19769339E-04   3.25143784E-02
  0.691406250       1.17187500E-02   1.48203108E-03  -7.77814246E-04   3.23675945E-02
  0.699218750       1.17187500E-02   2.35393154E-03  -7.30112719E-04   3.22099142E-02
  0.707031250       1.17187500E-02   3.17007955E-03  -6.77360629E-04   3.20427641E-02
  0.714843750       1.17187500E-02   3.92512046E-03  -6.20319857E-04   3.18676308E-02
  0.722656250       1.17187500E-02   4.61455435E-03  -5.59799082E-04   3.16861048E-02
  0.730468750       1.17187500E-02   5.23477886E-03  -4.96630440E-04   3.14997695E-02
  0.738281250       1.17187500E-02   5.78309316E-03  -4.31671564E-04   3.13102454E-02
  0.746093750       1.17187500E-02   6.25774544E-03  -3.65759566E-04   3.11191231E-02
  0.753906250       1.17187500E-02   6.65789563E-03  -2.99717591E-04   3.09279375E-02
  0.761718750       1.17187500E-02   6.98358845E-03  -2.34318752E-04   3.07381488E-02
  0.769531250       1.17187500E-02   7.23572029E-03  -1.70295840E-04   3.05511318E-02
  0.777343750       1.17187500E-02   7.41597079E-03  -1.08306682E-04   3.03681418E-02
  0.785156250       1.17187500E-02   7.52672087E-03  -4.89312006E-05   3.01903039E-02
  0.792968750       1.17187500E-02   7.57097360E-03   7.33155912E-06   3.00186090E-02
  0.800781250       1.17187500E-02   7.55228195E-03   6.00712847E-05   2.98539288E-02
  0.808593750       1.17187500E-02   7.47462735E-03   1.08971100E-04   2.96969637E-02
  0.816406250       1.17187500E-02   7.34232133E-03   1.53806963E-04   2.95482967E-02
  0.824218750       1.17187500E-02   7.15992600E-03   1.94436696E-04   2.94083636E-02
  0.832031250       1.17187500E-02   6.93214359E-03   2.30802383E-04   2.92774849E-02
  0.839843750       1.17187500E-02   6.66374201E-03   2.62916408E-04   2.91558579E-02
  0.847656250       1.17187500E-02   6.35946821E-03   2.90869270E-04   2.90435776E-02
  0.855468750       1.17187500E-02   6.02399278E-03   3.14778299E-04   2.89406534E-02
  0.863281250       1.17187500E-02   5.66187315E-03   3.34806798E-04   2.88470164E-02
  0.871093750       1.17187500E-02   5.27750468E-03   3.51127470E-04   2.87625492E-02
  0.878906250       1.17187500E-02   4.87512909E-03   3.63903528E-04   2.86870841E-02
  0.886718750       1.17187500E-02   4.45884839E-03   3.73266521E-04   2.86204107E-02
  0.894531250       1.17187500E-02   4.03268449E-03   3.79288715E-04   2.85623297E-02
  0.902343750       1.17187500E-02   3.60065931E-03   3.81947844E-04   2.85126083E-02
  0.910156250       1.17187500E-02   3.16690118E-03   3.81097954E-04   2.84710303E-02
  0.917968750       1.17187500E-02   2.73580104E-03   3.76428186E-04   2.84373686E-02
  0.925781250       1.17187500E-02   2.31219083E-03   3.67439701E-04   2.84114014E-02
  0.933593750       1.17187500E-02   1.90155767E-03   3.53403972E-04   2.83928700E-02
  0.941406250       1.17187500E-02   1.51024386E-03   3.33347998E-04   2.83814594E-02
  0.949218750       1.17187500E-02   1.14565738E-03   3.06075846E-04   2.83767618E-02
  0.957031250       1.17187500E-02   8.16367916E-04   2.70251796E-04   2.83781700E-02
  0.964843750       1.17187500E-02   5.31979022E-04   2.24646035E-04   2.83848085E-02
  0.972656250       1.17187500E-02   3.02520522E-04   1.68748375E-04   2.83953659E-02
  0.980468750       1.17187500E-02   1.36862218E-04   1.04196166E-04   2.84079723E-02
  0.988281250       1.17187500E-02   3.93845694E-05   3.80885322E-05   2.84200981E-02
  0.996093750       1.17187500E-02   3.90914965E-06  -9.61690603E-06   2.84286961E-02
   3.90625000E-03   1.95312500E-02   1.00639372E-05  -3.22368505E-05   3.27047333E-02
   1.17187500E-02   1.95312500E-02   3.98608536E-05  -7.12621841E-05   3.27065289E-02
   1.95312500E-02   1.95312500E-02   8.17058681E-05  -8.57401174E-05   3.27051729E-02
   2.73437500E-02   1.95312500E-02   1.22975849E-04  -8.10402998E-05   3.27008106E-02
   3.51562500E-02   1.95312500E-02   1.54529102E-04  -6.31137809E-05   3.26935835E-02
   4.29687500E-02   1.95312500E-02   1.70082203E-04  -3.70151174E-05   3.26837115E-02
   5.07812500E-02   1.95312500E-02   1.65750665E-04  -6.58550289E-06   3.26714553E-02
   5.85937500E-02   1.95312500E-02   1.39512835E-04   2.54724819E-05   3.26570719E-02
   6.64062500E-02   1.95312500E-02   9.07172507E-05   5.73471007E-05   3.26408111E-02
   7.42187500E-02   1.95312500E-02   1.96525689E-05   8.79559811E-05   3.26228961E-02
   8.20312500E-02   1.95312500E-02  -7.28243758E-05   1.16729934E-04   3.26035023E-02
   8.98437500E-02   1.95312500E-02  -1.85573954E-04   1.43496261E-04   3.25827673E-02
   9.76562500E-02   1.95312500E-02  -3.17404920E-04   1.68349739E-04   3.25607881E-02
  0.105468750       1.95312500E-02  -4.67232720E-04   1.91562867E-04   3.25376391E-02
  0.113281250       1.95312500E-02  -6.34151977E-04   2.13525869E-04   3.25133726E-02
  0.121093750       1.95312500E-02  -8.17531080E-04   2.34690960E-04   3.24880108E-02
  0.128906250       1.95312500E-02  -1.01705454E-03   2.55518709E-04   3.24615613E-02
  0.136718750       1.95312500E-02  -1.23270473E-03   2.76466046E-04   3.24340314E-02
  0.144531250       1.95312500E-02  -1.46475015E-03   2.97948543E-04   3.24054286E-02
  0.152343750       1.95312500E-02  -1.71372760E-03   3.20335617E-04   3.23757529E-02
  0.160156250       1.95312500E-02  -1.98040623E-03   3.43931606E-04   3.23450156E-02
  0.167968750       1.95312500E-02  -2.26573786E-03   3.68982583E-04   3.23132388E-02
  0.175781250       1.95312500E-02  -2.57083122E-03   3.95666721E-04   3.22804451E-02
  0.183593750       1.95312500E-02  -2.89689703E-03   4.24103928E-04   3.22466791E-02
  0.191406250       1.95312500E-02  -3.24519281E-03   4.54353227E-04   3.22119966E-02
  0.199218750       1.95312500E-02  -3.61699192E-03   4.86415433E-04   3.21764611E-02
  0.207031250       1.95312500E-02  -4.01355699E-03   5.20245929E-04   3.21401469E-02
  0.214843750       1.95312500E-02  -4.43610130E-03   5.55756676E-04   3.21031585E-02
  0.222656250       1.95312500E-02  -4.88574617E-03   5.92817843E-04   3.20656002E-02
  0.230468750       1.95312500E-02  -5.36349323E-03   6.31272444E-04   3.20275947E-02
  0.238281250       1.95312500E-02  -5.87021559E-03   6.70926063E-04   3.19892690E-02
  0.246093750       1.95312500E-02  -6.40662108E-03   7.11552624E-04   3.19507867E-02
  0.253906250       1.95312500E-02  -6.97320374E-03   7.52892578E-04   3.19123194E-02
  0.261718750       1.95312500E-02  -7.57026859E-03   7.94661231E-04   3.18740383E-02
  0.269531250       1.95312500E-02  -8.19790363E-03   8.36558407E-04   3.18361521E-02
  0.277343750       1.95312500E-02  -8.85592028E-03   8.78238177E-04   3.17988843E-02
  0.285156250       1.95312500E-02  -9.54385102E-03   9.19323764E-04   3.17624584E-02
  0.292968750       1.95312500E-02  -1.02609359E-02   9.59414407E-04   3.17271315E-02
  0.300781250       1.95312500E-02  -1.10060796E-02   9.98064759E-04   3.16931829E-02
  0.308593750       1.95312500E-02  -1.17778368E-02   1.03479426E-03   3.16608921E-02
  0.316406250       1.95312500E-02  -1.25744017E-02   1.06910733E-03   3.16305719E-02
  0.324218750       1.95312500E-02  -1.33935735E-02   1.10044982E-03   3.16025428E-02
  0.332031250       1.95312500E-02  -1.42327324E-02   1.12825935E-03   3.15771513E-02
  0.339843750       1.95312500E-02  -1.50888301E-02   1.15193881E-03   3.15547436E-02
  0.347656250       1.95312500E-02  -1.59583874E-02   1.17086340E-03   3.15356925E-02
  0.355468750       1.95312500E-02  -1.68374591E-02   1.18439901E-03   3.15203667E-02
  0.363281250       1.95312500E-02  -1.77216567E-02   1.19191071E-03   3.15091349E-02
  0.371093750       1.95312500E-02  -1.86061636E-02   1.19276019E-03   3.15023810E-02
  0.378906250       1.95312500E-02  -1.94857009E-02   1.18632021E-03   3.15004587E-02
  0.386718750       1.95312500E-02  -2.03545839E-02   1.17198296E-03   3.15037221E-02
  0.394531250       1.95312500E-02  -2.12067477E-02   1.14918163E-03   3.15124914E-02
  0.402343750       1.95312500E-02  -2.20357776E-02   1.11739081E-03   3.15270685E-02
  0.410156250       1.95312500E-02  -2.28349455E-02   1.07615395E-03   3.15477140E-02
  0.417968750       1.95312500E-02  -2.35972609E-02   1.02508022E-03   3.15746367E-02
  0.425781250       1.95312500E-02  -2.43155565E-02   9.63872182E-04   3.16079855E-02
  0.433593750       1.95312500E-02  -2.49825381E-02   8.92317388E-04   3.16478536E-02
  0.441406250       1.95312500E-02  -2.55908817E-02   8.10330268E-04   3.16942297E-02
  0.449218750       1.95312500E-02  -2.61332989E-02   7.17936549E-04   3.17470506E-02
  0.457031250       1.95312500E-02  -2.66026296E-02   6.15295256E-04   3.18061337E-02
  0.464843750       1.95312500E-02  -2.69919485E-02   5.02722221E-04   3.18712071E-02
  0.472656250       1.95312500E-02  -2.72946544E-02   3.80661397E-04   3.19418870E-02
  0.480468750       1.95312500E-02  -2.75045633E-02   2.49710283E-04   3.20176780E-02
  0.488281250       1.95312500E-02  -2.76160240E-02   1.10617475E-04   3.20979506E-02
  0.496093750       1.95312500E-02  -2.76240129E-02  -3.57053759E-05   3.21819745E-02
  0.503906250       1.95312500E-02  -2.75242459E-02  -1.88199308E-04   3.22689004E-02
  0.511718750       1.95312500E-02  -2.73132324E-02  -3.45670531E-04   3.23577672E-02
  0.519531250       1.95312500E-02  -2.69883890E-02  -5.06788259E-04   3.24475020E-02
  0.527343750       1.95312500E-02  -2.65481062E-02  -6.70089852E-04   3.25369537E-02
  0.535156250       1.95312500E-02  -2.59918161E-02  -8.34016595E-04   3.26248594E-02
  0.542968750       1.95312500E-02  -2.53200512E-02  -9.96928313E-04   3.27099152E-02
  0.550781250       1.95312500E-02  -2.45344769E-02  -1.15711335E-03   3.27907540E-02
  0.558593750       1.95312500E-02  -2.36379243E-02  -1.31281302E-03   3.28659974E-02
  0.566406250       1.95312500E-02  -2.26344001E-02  -1.46225421E-03   3.29342447E-02
  0.574218750       1.95312500E-02  -2.15290803E-02  -1.60367065E-03   3.29941325E-02
  0.582031250       1.95312500E-02  -2.03282759E-02  -1.73534965E-03   3.30443457E-02
  0.589843750       1.95312500E-02  -1.90394074E-02  -1.85563602E-03   3.30836251E-02
  0.597656250       1.95312500E-02  -1.76709536E-02  -1.96297723E-03   3.31108272E-02
  0.605468750       1.95312500E-02  -1.62323359E-02  -2.05595838E-03   3.31249386E-02
  0.613281250       1.95312500E-02  -1.47338435E-02  -2.13332614E-03   3.31250764E-02
  0.621093750       1.95312500E-02  -1.31865274E-02  -2.19400646E-03   3.31105478E-02
  0.628906250       1.95312500E-02  -1.16020702E-02  -2.23714975E-03   3.30808274E-02
  0.636718750       1.95312500E-02  -9.99264326E-03  -2.26212130E-03   3.30356136E-02
  0.644531250       1.95312500E-02  -8.37075152E-03  -2.26854510E-03   3.29748057E-02
  0.652343750       1.95312500E-02  -6.74906326E-03  -2.25631124E-03   3.28985341E-02
  0.660156250       1.95312500E-02  -5.14026824E-03  -2.22556666E-03   3.28071192E-02
  0.667968750       1.95312500E-02  -3.55688832E-03  -2.17674603E-03   3.27011384E-02
  0.675781250       1.95312500E-02  -2.01110332E-03  -2.11053016E-03   3.25813293E-02
  0.683593750       1.95312500E-02  -5.14589541E-04  -2.02785200E-03   3.24486606E-02
  0.691406250       1.95312500E-02   9.21642699E-04  -1.92988664E-03   3.23042236E-02
  0.699218750       1.95312500E-02   2.28735711E-03  -1.81803212E-03   3.21492739E-02
  0.707031250       1.95312500E-02   3.57328029E-03  -1.69385958E-03   3.19852084E-02