 VARIABLES="X","Y","U","V","P"
 ZONE F=POINT, I=         128 , J=         128
   3.90625000E-03   3.90625000E-03   3.02372860E-06  -3.25714882E-06   1.78289413E-02
   1.17187500E-02   3.90625000E-03   9.48856177E-06  -3.75232639E-06   1.78275760E-02
   1.95312500E-02   3.90625000E-03   1.36247027E-05  -1.00694228E-06   1.78230293E-02
   2.73437500E-02   3.90625000E-03   1.09957946E-05   3.01314753E-06   1.78160779E-02
   3.51562500E-02   3.90625000E-03   7.24517122E-08   7.28478153E-06   1.78076550E-02
   4.29687500E-02   3.90625000E-03  -1.91662075E-05   1.13292281E-05   1.77985802E-02
   5.07812500E-02   3.90625000E-03  -4.60540105E-05   1.49363505E-05   1.77894812E-02
   5.85937500E-02   3.90625000E-03  -7.96594250E-05   1.80452516E-05   1.77808236E-02
   6.64062500E-02   3.90625000E-03  -1.18981610E-04   2.06556215E-05   1.77729372E-02
   7.42187500E-02   3.90625000E-03  -1.63056771E-04   2.27985111E-05   1.77660417E-02
   8.20312500E-02   3.90625000E-03  -2.10999831E-04   2.45235096E-05   1.77602805E-02
   8.98437500E-02   3.90625000E-03  -2.62028014E-04   2.58854834E-05   1.77557319E-02
   9.76562500E-02   3.90625000E-03  -3.15471378E-04   2.69360880E-05   1.77524313E-02
  0.105468750       3.90625000E-03  -3.70760536E-04   2.77304098E-05   1.77503861E-02
  0.113281250       3.90625000E-03  -4.27422172E-04   2.83114823E-05   1.77495759E-02
  0.121093750       3.90625000E-03  -4.85077209E-04   2.87224848E-05   1.77499671E-02
  0.128906250       3.90625000E-03  -5.43420436E-04   2.89987875E-05   1.77515280E-02
  0.136718750       3.90625000E-03  -6.02209358E-04   2.91724136E-05   1.77542120E-02
  0.144531250       3.90625000E-03  -6.61263824E-04   2.92657460E-05   1.77579764E-02
  0.152343750       3.90625000E-03  -7.20447279E-04   2.93018838E-05   1.77627876E-02
  0.160156250       3.90625000E-03  -7.79658032E-04   2.92937875E-05   1.77686121E-02
  0.167968750       3.90625000E-03  -8.38827691E-04   2.92582954E-05   1.77754201E-02
  0.175781250       3.90625000E-03  -8.97905964E-04   2.92041368E-05   1.77831966E-02
  0.183593750       3.90625000E-03  -9.56857693E-04   2.91359083E-05   1.77919250E-02
  0.191406250       3.90625000E-03  -1.01565744E-03   2.90601129E-05   1.78015977E-02
  0.199218750       3.90625000E-03  -1.07429386E-03   2.89727068E-05   1.78122036E-02
  0.207031250       3.90625000E-03  -1.13275740E-03   2.88826686E-05   1.78237557E-02
  0.214843750       3.90625000E-03  -1.19102723E-03   2.87862676E-05   1.78362578E-02
  0.222656250       3.90625000E-03  -1.24909135E-03   2.86793911E-05   1.78497173E-02
  0.230468750       3.90625000E-03  -1.30693254E-03   2.85601745E-05   1.78641547E-02
  0.238281250       3.90625000E-03  -1.36452354E-03   2.84265680E-05   1.78795904E-02
  0.246093750       3.90625000E-03  -1.42182852E-03   2.82748751E-05   1.78960487E-02
  0.253906250       3.90625000E-03  -1.47880160E-03   2.81013545E-05   1.79135501E-02
  0.261718750       3.90625000E-03  -1.53539842E-03   2.78984262E-05   1.79321133E-02
  0.269531250       3.90625000E-03  -1.59155973E-03   2.76644569E-05   1.79517735E-02
  0.277343750       3.90625000E-03  -1.64721184E-03   2.73921323E-05   1.79725513E-02
  0.285156250       3.90625000E-03  -1.70227594E-03   2.70767923E-05   1.79944746E-02
  0.292968750       3.90625000E-03  -1.75666146E-03   2.67151972E-05   1.80175658E-02
  0.300781250       3.90625000E-03  -1.81026990E-03   2.63017864E-05   1.80418454E-02
  0.308593750       3.90625000E-03  -1.86299079E-03   2.58314340E-05   1.80673338E-02
  0.316406250       3.90625000E-03  -1.91470445E-03   2.52979207E-05   1.80940460E-02
  0.324218750       3.90625000E-03  -1.96528528E-03   2.46980671E-05   1.81219950E-02
  0.332031250       3.90625000E-03  -2.01459415E-03   2.40268600E-05   1.81511920E-02
  0.339843750       3.90625000E-03  -2.06248532E-03   2.32826442E-05   1.81816407E-02
  0.347656250       3.90625000E-03  -2.10880674E-03   2.24578926E-05   1.82133429E-02
  0.355468750       3.90625000E-03  -2.15339730E-03   2.15508971E-05   1.82462931E-02
  0.363281250       3.90625000E-03  -2.19608750E-03   2.05597098E-05   1.82804801E-02
  0.371093750       3.90625000E-03  -2.23670434E-03   1.94803488E-05   1.83158815E-02
  0.378906250       3.90625000E-03  -2.27507227E-03   1.83116426E-05   1.83524750E-02
  0.386718750       3.90625000E-03  -2.31100852E-03   1.70531603E-05   1.83902271E-02
  0.394531250       3.90625000E-03  -2.34433217E-03   1.57014165E-05   1.84290931E-02
  0.402343750       3.90625000E-03  -2.37485999E-03   1.42578165E-05   1.84690282E-02
  0.410156250       3.90625000E-03  -2.40241084E-03   1.27200274E-05   1.85099728E-02
  0.417968750       3.90625000E-03  -2.42680055E-03   1.10957881E-05   1.85518675E-02
  0.425781250       3.90625000E-03  -2.44785007E-03   9.38315407E-06   1.85946301E-02
  0.433593750       3.90625000E-03  -2.46538734E-03   7.58439910E-06   1.86381824E-02
  0.441406250       3.90625000E-03  -2.47924495E-03   5.70482189E-06   1.86824296E-02
  0.449218750       3.90625000E-03  -2.48926552E-03   3.74756723E-06   1.87272690E-02
  0.457031250       3.90625000E-03  -2.49530142E-03   1.71821569E-06   1.87725928E-02
  0.464843750       3.90625000E-03  -2.49721296E-03  -3.75177137E-07   1.88182835E-02
  0.472656250       3.90625000E-03  -2.49487697E-03  -2.52619793E-06   1.88642107E-02
  0.480468750       3.90625000E-03  -2.48818891E-03  -4.72854663E-06   1.89102422E-02
  0.488281250       3.90625000E-03  -2.47705309E-03  -6.97276664E-06   1.89562384E-02
  0.496093750       3.90625000E-03  -2.46139523E-03  -9.24674441E-06   1.90020483E-02
  0.503906250       3.90625000E-03  -2.44116504E-03  -1.15450512E-05   1.90475211E-02
  0.511718750       3.90625000E-03  -2.41632666E-03  -1.38508431E-05   1.90924965E-02
  0.519531250       3.90625000E-03  -2.38687079E-03  -1.61564840E-05   1.91368069E-02
  0.527343750       3.90625000E-03  -2.35281512E-03  -1.84499422E-05   1.91802867E-02
  0.535156250       3.90625000E-03  -2.31419923E-03  -2.07196645E-05   1.92227699E-02
  0.542968750       3.90625000E-03  -2.27108481E-03  -2.29501820E-05   1.92640908E-02
  0.550781250       3.90625000E-03  -2.22356059E-03  -2.51273450E-05   1.93040837E-02
  0.558593750       3.90625000E-03  -2.17174296E-03  -2.72426423E-05   1.93425789E-02
  0.566406250       3.90625000E-03  -2.11577350E-03  -2.92772966E-05   1.93794183E-02
  0.574218750       3.90625000E-03  -2.05582101E-03  -3.12237280E-05   1.94144417E-02
  0.582031250       3.90625000E-03  -1.99208222E-03  -3.30665971E-05   1.94475017E-02
  0.589843750       3.90625000E-03  -1.92477065E-03  -3.47912901E-05   1.94784626E-02
  0.597656250       3.90625000E-03  -1.85412704E-03  -3.63907093E-05   1.95071828E-02
  0.605468750       3.90625000E-03  -1.78042240E-03  -3.78517361E-05   1.95335411E-02
  0.613281250       3.90625000E-03  -1.70394406E-03  -3.91636822E-05   1.95574295E-02
  0.621093750       3.90625000E-03  -1.62499724E-03  -4.03193408E-05   1.95787530E-02
  0.628906250       3.90625000E-03  -1.54390512E-03  -4.13089438E-05   1.95974298E-02
  0.636718750       3.90625000E-03  -1.46100600E-03  -4.21243130E-05   1.96133964E-02
  0.644531250       3.90625000E-03  -1.37664855E-03  -4.27608247E-05   1.96266025E-02
  0.652343750       3.90625000E-03  -1.29119493E-03  -4.32160195E-05   1.96370129E-02
  0.660156250       3.90625000E-03  -1.20501616E-03  -4.34860594E-05   1.96446143E-02
  0.667968750       3.90625000E-03  -1.11848512E-03  -4.35681359E-05   1.96494088E-02
  0.675781250       3.90625000E-03  -1.03197666E-03  -4.34606191E-05   1.96514167E-02
  0.683593750       3.90625000E-03  -9.45864129E-04  -4.31681074E-05   1.96506772E-02
  0.691406250       3.90625000E-03  -8.60516448E-04  -4.26905244E-05   1.96472444E-02
  0.699218750       3.90625000E-03  -7.76296831E-04  -4.20357537E-05   1.96411908E-02
  0.707031250       3.90625000E-03  -6.93562091E-04  -4.12055233E-05   1.96326058E-02
  0.714843750       3.90625000E-03  -6.12652395E-04  -4.02069854E-05   1.96215957E-02
  0.722656250       3.90625000E-03  -5.33896149E-04  -3.90505520E-05   1.96082778E-02
  0.730468750       3.90625000E-03  -4.57605929E-04  -3.77404212E-05   1.95927881E-02
  0.738281250       3.90625000E-03  -3.84070503E-04  -3.62892752E-05   1.95752718E-02
  0.746093750       3.90625000E-03  -3.13564611E-04  -3.47065034E-05   1.95558816E-02
  0.753906250       3.90625000E-03  -2.46346492E-04  -3.30034127E-05   1.95347853E-02
  0.761718750       3.90625000E-03  -1.82641568E-04  -3.11895201E-05   1.95121635E-02
  0.769531250       3.90625000E-03  -1.22656682E-04  -2.92790810E-05   1.94881856E-02
  0.777343750       3.90625000E-03  -6.65771804E-05  -2.72816487E-05   1.94630455E-02
  0.785156250       3.90625000E-03  -1.45606255E-05  -2.52112713E-05   1.94369312E-02
  0.792968750       3.90625000E-03   3.32550080E-05  -2.30783826E-05   1.94100346E-02
  0.800781250       3.90625000E-03   7.67539750E-05  -2.08940510E-05   1.93825439E-02
  0.808593750       3.90625000E-03   1.15846182E-04  -1.86706620E-05   1.93546563E-02
  0.816406250       3.90625000E-03   1.50466047E-04  -1.64197972E-05   1.93265602E-02
  0.824218750       3.90625000E-03   1.80566960E-04  -1.41501587E-05   1.92984454E-02
  0.832031250       3.90625000E-03   2.06127850E-04  -1.18742828E-05   1.92704983E-02
  0.839843750       3.90625000E-03   2.27143770E-04  -9.60580837E-06   1.92428976E-02
  0.847656250       3.90625000E-03   2.43635222E-04  -7.34948844E-06   1.92158259E-02
  0.855468750       3.90625000E-03   2.55644612E-04  -5.11925919E-06   1.91894490E-02
  0.863281250       3.90625000E-03   2.63234309E-04  -2.92740128E-06   1.91639401E-02
  0.871093750       3.90625000E-03   2.66489573E-04  -7.85458667E-07   1.91394538E-02
  0.878906250       3.90625000E-03   2.65521696E-04   1.29509840E-06   1.91161521E-02
  0.886718750       3.90625000E-03   2.60474219E-04   3.29775958E-06   1.90941822E-02
  0.894531250       3.90625000E-03   2.51518941E-04   5.20361209E-06   1.90736894E-02
  0.902343750       3.90625000E-03   2.38868728E-04   6.99270095E-06   1.90548133E-02
  0.910156250       3.90625000E-03   2.22784030E-04   8.63875266E-06   1.90376863E-02
  0.917968750       3.90625000E-03   2.03581410E-04   1.01090327E-05   1.90224349E-02
  0.925781250       3.90625000E-03   1.81653653E-04   1.13627075E-05   1.90091822E-02
  0.933593750       3.90625000E-03   1.57491275E-04   1.23465952E-05   1.89980343E-02
  0.941406250       3.90625000E-03   1.31701614E-04   1.29903692E-05   1.89890787E-02
  0.949218750       3.90625000E-03   1.05055093E-04   1.32042387E-05   1.89823844E-02
  0.957031250       3.90625000E-03   7.85264710E-05   1.28725642E-05   1.89779643E-02
  0.964843750       3.90625000E-03   5.33532657E-05   1.18493926E-05   1.89757720E-02
  0.972656250       3.90625000E-03   3.10947216E-05   9.95673508E-06   1.89756267E-02
  0.980468750       3.90625000E-03   1.36265144E-05   7.05555249E-06   1.89771466E-02
  0.988281250       3.90625000E-03   2.87883472E-06   3.23791437E-06   1.89795867E-02
  0.996093750       3.90625000E-03  -2.92862580E-07  -4.37262599E-07   1.89816803E-02
   3.90625000E-03   1.17187500E-02   3.33582057E-06  -1.01610267E-05   1.78303886E-02
   1.17187500E-02   1.17187500E-02   7.77698369E-06  -9.00256418E-06   1.78289972E-02
   1.95312500E-02   1.17187500E-02   2.90670096E-06   3.56704163E-06   1.78250615E-02
   2.73437500E-02   1.17187500E-02  -1.84591263E-05   2.10263952E-05   1.78192332E-02
   3.51562500E-02   1.17187500E-02  -5.93695804E-05   3.96967298E-05   1.78121869E-02
   4.29687500E-02   1.17187500E-02  -1.20283243E-04   5.76522434E-05   1.78045444E-02
   5.07812500E-02   1.17187500E-02  -2.00148905E-04   7.39543757E-05   1.77968293E-02
   5.85937500E-02   1.17187500E-02  -2.97142542E-04   8.82225722E-05   1.77894328E-02
   6.64062500E-02   1.17187500E-02  -4.09122498E-04   1.00377110E-04   1.77826546E-02
   7.42187500E-02   1.17187500E-02  -5.33880666E-04   1.10502908E-04   1.77767128E-02
   8.20312500E-02   1.17187500E-02  -6.69295085E-04   1.18772587E-04   1.77717544E-02
   8.98437500E-02   1.17187500E-02  -8.13428313E-04   1.25397040E-04   1.77678652E-02
   9.76562500E-02   1.17187500E-02  -9.64559033E-04   1.30596163E-04   1.77651010E-02
  0.105468750       1.17187500E-02  -1.12119468E-03   1.34590853E-04   1.77634768E-02
  0.113281250       1.17187500E-02  -1.28206681E-03   1.37583673E-04   1.77629963E-02
  0.121093750       1.17187500E-02  -1.44611788E-03   1.39756055E-04   1.77636370E-02
  0.128906250       1.17187500E-02  -1.61248213E-03   1.41272030E-04   1.77653804E-02
  0.136718750       1.17187500E-02  -1.78046082E-03   1.42271194E-04   1.77681893E-02
  0.144531250       1.17187500E-02  -1.94950076E-03   1.42866833E-04   1.77720394E-02
  0.152343750       1.17187500E-02  -2.11917050E-03   1.43158293E-04   1.77769009E-02
  0.160156250       1.17187500E-02  -2.28913547E-03   1.43221478E-04   1.77827515E-02
  0.167968750       1.17187500E-02  -2.45914329E-03   1.43118974E-04   1.77895613E-02
  0.175781250       1.17187500E-02  -2.62900838E-03   1.42896868E-04   1.77973211E-02
  0.183593750       1.17187500E-02  -2.79858289E-03   1.42585443E-04   1.78060215E-02
  0.191406250       1.17187500E-02  -2.96775904E-03   1.42210556E-04   1.78156532E-02
  0.199218750       1.17187500E-02  -3.13644623E-03   1.41777113E-04   1.78262182E-02
  0.207031250       1.17187500E-02  -3.30456998E-03   1.41297030E-04   1.78377125E-02
  0.214843750       1.17187500E-02  -3.47205997E-03   1.40767486E-04   1.78501494E-02
  0.222656250       1.17187500E-02  -3.63883702E-03   1.40177683E-04   1.78635381E-02
  0.230468750       1.17187500E-02  -3.80481523E-03   1.39519136E-04   1.78778972E-02
  0.238281250       1.17187500E-02  -3.96989472E-03   1.38777192E-04   1.78932454E-02
  0.246093750       1.17187500E-02  -4.13395558E-03   1.37934549E-04   1.79096032E-02
  0.253906250       1.17187500E-02  -4.29686066E-03   1.36972303E-04   1.79269873E-02
  0.261718750       1.17187500E-02  -4.45845257E-03   1.35867347E-04   1.79454219E-02
  0.269531250       1.17187500E-02  -4.61854879E-03   1.34602480E-04   1.79649349E-02
  0.277343750       1.17187500E-02  -4.77694115E-03   1.33151130E-04   1.79855488E-02
  0.285156250       1.17187500E-02  -4.93339170E-03   1.31493143E-04   1.80072896E-02
  0.292968750       1.17187500E-02  -5.08764107E-03   1.29602209E-04   1.80301722E-02
  0.300781250       1.17187500E-02  -5.23940800E-03   1.27458479E-04   1.80542171E-02
  0.308593750       1.17187500E-02  -5.38838143E-03   1.25040431E-04   1.80794448E-02
  0.316406250       1.17187500E-02  -5.53422421E-03   1.22322948E-04   1.81058701E-02
  0.324218750       1.17187500E-02  -5.67658013E-03   1.19285382E-04   1.81335025E-02
  0.332031250       1.17187500E-02  -5.81506453E-03   1.15910982E-04   1.81623530E-02
  0.339843750       1.17187500E-02  -5.94927464E-03   1.12181675E-04   1.81924179E-02
  0.347656250       1.17187500E-02  -6.07879274E-03   1.08077700E-04   1.82237048E-02
  0.355468750       1.17187500E-02  -6.20317226E-03   1.03583901E-04   1.82562023E-02
  0.363281250       1.17187500E-02  -6.32195920E-03   9.86902742E-05   1.82898995E-02
  0.371093750       1.17187500E-02  -6.43468229E-03   9.33834817E-05   1.83247756E-02
  0.378906250       1.17187500E-02  -6.54086284E-03   8.76573322E-05   1.83608048E-02
  0.386718750       1.17187500E-02  -6.64001517E-03   8.15052044E-05   1.83979515E-02
  0.394531250       1.17187500E-02  -6.73165172E-03   7.49193132E-05   1.84361748E-02
  0.402343750       1.17187500E-02  -6.81528309E-03   6.79065997E-05   1.84754282E-02
  0.410156250       1.17187500E-02  -6.89041894E-03   6.04664383E-05   1.85156576E-02
  0.417968750       1.17187500E-02  -6.95657823E-03   5.26119875E-05   1.85567923E-02
  0.425781250       1.17187500E-02  -7.01329624E-03   4.43484896E-05   1.85987614E-02
  0.433593750       1.17187500E-02  -7.06011523E-03   3.56910241E-05   1.86414868E-02
  0.441406250       1.17187500E-02  -7.09660258E-03   2.66593343E-05   1.86848715E-02
  0.449218750       1.17187500E-02  -7.12234993E-03   1.72754844E-05   1.87288206E-02
  0.457031250       1.17187500E-02  -7.13697355E-03   7.56607051E-06   1.87732279E-02
  0.464843750       1.17187500E-02  -7.14012654E-03  -2.43942213E-06   1.88179743E-02
  0.472656250       1.17187500E-02  -7.13149877E-03  -1.27046724E-05   1.88629348E-02
  0.480468750       1.17187500E-02  -7.11082388E-03  -2.31951344E-05   1.89079810E-02
  0.488281250       1.17187500E-02  -7.07787229E-03  -3.38679893E-05   1.89529788E-02
  0.496093750       1.17187500E-02  -7.03247450E-03  -4.46769882E-05   1.89977754E-02
  0.503906250       1.17187500E-02  -6.97451131E-03  -5.55743027E-05   1.90422349E-02
  0.511718750       1.17187500E-02  -6.90391893E-03  -6.65078187E-05   1.90861896E-02
  0.519531250       1.17187500E-02  -6.82070013E-03  -7.74252258E-05   1.91294830E-02
  0.527343750       1.17187500E-02  -6.72491733E-03  -8.82729873E-05   1.91719551E-02
  0.535156250       1.17187500E-02  -6.61669299E-03  -9.89915716E-05   1.92134492E-02
  0.542968750       1.17187500E-02  -6.49621757E-03  -1.09519788E-04   1.92537978E-02
  0.550781250       1.17187500E-02  -6.36375556E-03  -1.19795208E-04   1.92928370E-02
  0.558593750       1.17187500E-02  -6.21963246E-03  -1.29763241E-04   1.93304140E-02
  0.566406250       1.17187500E-02  -6.06424408E-03  -1.39358279E-04   1.93663649E-02
  0.574218750       1.17187500E-02  -5.89805748E-03  -1.48524705E-04   1.94005445E-02
  0.582031250       1.17187500E-02  -5.72159700E-03  -1.57203351E-04   1.94328055E-02
  0.589843750       1.17187500E-02  -5.53545915E-03  -1.65335441E-04   1.94630101E-02
  0.597656250       1.17187500E-02  -5.34030050E-03  -1.72870787E-04   1.94910318E-02
  0.605468750       1.17187500E-02  -5.13683399E-03  -1.79759110E-04   1.95167512E-02
  0.613281250       1.17187500E-02  -4.92583215E-03  -1.85953963E-04   1.95400622E-02
  0.621093750       1.17187500E-02  -4.70811175E-03  -1.91412691E-04   1.95608772E-02
  0.628906250       1.17187500E-02  -4.48453054E-03  -1.96098306E-04   1.95791144E-02
  0.636718750       1.17187500E-02  -4.25599143E-03  -1.99978211E-04   1.95947103E-02
  0.644531250       1.17187500E-02  -4.02342714E-03  -2.03026691E-04   1.96076185E-02
  0.652343750       1.17187500E-02  -3.78779601E-03  -2.05226810E-04   1.96178108E-02
  0.660156250       1.17187500E-02  -3.55007406E-03  -2.06562167E-04   1.96252726E-02
  0.667968750       1.17187500E-02  -3.31125199E-03  -2.07025383E-04   1.96300037E-02
  0.675781250       1.17187500E-02  -3.07232747E-03  -2.06613258E-04   1.96320228E-02
  0.683593750       1.17187500E-02  -2.83428980E-03  -2.05335033E-04   1.96313765E-02
  0.691406250       1.17187500E-02  -2.59812083E-03  -2.03201111E-04   1.96281113E-02
  0.699218750       1.17187500E-02  -2.36478541E-03  -2.00230759E-04   1.96223054E-02
  0.707031250       1.17187500E-02  -2.13522790E-03  -1.96447189E-04   1.96140390E-02
  0.714843750       1.17187500E-02  -1.91036670E-03  -1.91878484E-04   1.96034163E-02
  0.722656250       1.17187500E-02  -1.69107527E-03  -1.86561403E-04   1.95905585E-02
  0.730468750       1.17187500E-02  -1.47819205E-03  -1.80533127E-04   1.95755903E-02
  0.738281250       1.17187500E-02  -1.27250690E-03  -1.73837223E-04   1.95586588E-02
  0.746093750       1.17187500E-02  -1.07476232E-03  -1.66519661E-04   1.95399094E-02
  0.753906250       1.17187500E-02  -8.85653077E-04  -1.58629511E-04   1.95195097E-02
  0.761718750       1.17187500E-02  -7.05809449E-04  -1.50217107E-04   1.94976311E-02
  0.769531250       1.17187500E-02  -5.35804778E-04  -1.41338489E-04   1.94744449E-02
  0.777343750       1.17187500E-02  -3.76152952E-04  -1.32044603E-04   1.94501355E-02
  0.785156250       1.17187500E-02  -2.27308192E-04  -1.22390251E-04   1.94248892E-02
  0.792968750       1.17187500E-02  -8.96653291E-05  -1.12429669E-04   1.93988904E-02
  0.800781250       1.17187500E-02   3.64385960E-05  -1.02216247E-04   1.93723235E-02
  0.808593750       1.17187500E-02   1.50731154E-04  -9.18028891E-05   1.93453822E-02
  0.816406250       1.17187500E-02   2.53006379E-04  -8.12417638E-05   1.93182509E-02
  0.824218750       1.17187500E-02   3.43110529E-04  -7.05869315E-05   1.92911085E-02
  0.832031250       1.17187500E-02   4.20948840E-04  -5.98871629E-05   1.92641411E-02
  0.839843750       1.17187500E-02   4.86492907E-04  -4.91987084E-05   1.92375276E-02
  0.847656250       1.17187500E-02   5.39770699E-04  -3.85662279E-05   1.92114357E-02
  0.855468750       1.17187500E-02   5.80867927E-04  -2.80490931E-05   1.91860311E-02
  0.863281250       1.17187500E-02   6.09940267E-04  -1.76989324E-05   1.91614814E-02
  0.871093750       1.17187500E-02   6.27212110E-04  -7.57740418E-06   1.91379376E-02
  0.878906250       1.17187500E-02   6.32980140E-04   2.25066651E-06   1.91155486E-02
  0.886718750       1.17187500E-02   6.27627480E-04   1.17092568E-05   1.90944578E-02
  0.894531250       1.17187500E-02   6.11635274E-04   2.07070370E-05   1.90748032E-02
  0.902343750       1.17187500E-02   5.85598871E-04   2.91447905E-05   1.90567113E-02
  0.910156250       1.17187500E-02   5.50246215E-04   3.68948204E-05   1.90403014E-02
  0.917968750       1.17187500E-02   5.06469107E-04   4.38015340E-05   1.90256871E-02
  0.925781250       1.17187500E-02   4.55360365E-04   4.96753746E-05   1.90129708E-02
  0.933593750       1.17187500E-02   3.98257427E-04   5.42720845E-05   1.90022364E-02
  0.941406250       1.17187500E-02   3.36793426E-04   5.72899007E-05   1.89935490E-02
  0.949218750       1.17187500E-02   2.72969599E-04   5.83507499E-05   1.89869478E-02
  0.957031250       1.17187500E-02   2.09214340E-04   5.69909535E-05   1.89824142E-02
  0.964843750       1.17187500E-02   1.48425854E-04   5.26661534E-05   1.89798735E-02
  0.972656250       1.17187500E-02   9.39886595E-05   4.48059654E-05   1.89791583E-02
  0.980468750       1.17187500E-02   4.95944332E-05   3.30445546E-05   1.89799406E-02
  0.988281250       1.17187500E-02   1.87046790E-05   1.78606533E-05   1.89817119E-02
  0.996093750       1.17187500E-02   3.51558265E-06   2.43859699E-06   1.89838130E-02
   3.90625000E-03   1.95312500E-02   5.00956105E-07  -1.46187813E-05   1.78350881E-02
   1.17187500E-02   1.95312500E-02  -5.20781305E-06  -4.68534381E-06   1.78330019E-02
   1.95312500E-02   1.95312500E-02  -2.89931741E-05   2.63304682E-05   1.78290140E-02
   2.73437500E-02   1.95312500E-02  -7.79076217E-05   6.69744404E-05   1.78236235E-02
   3.51562500E-02   1.95312500E-02  -1.55123911E-04   1.10309556E-04   1.78173333E-02
   4.29687500E-02   1.95312500E-02  -2.61109119E-04   1.52361114E-04   1.78106111E-02
   5.07812500E-02   1.95312500E-02  -3.94578092E-04   1.91004918E-04   1.78038646E-02
   5.85937500E-02   1.95312500E-02  -5.53217425E-04   2.25241398E-04   1.77974217E-02
   6.64062500E-02   1.95312500E-02  -7.34199537E-04   2.54755869E-04   1.77915357E-02
   7.42187500E-02   1.95312500E-02  -9.34524753E-04   2.79637170E-04   1.77863967E-02
   8.20312500E-02   1.95312500E-02  -1.15123740E-03   3.00199434E-04   1.77821424E-02
   8.98437500E-02   1.95312500E-02  -1.38157164E-03   3.16871301E-04   1.77788585E-02
   9.76562500E-02   1.95312500E-02  -1.62302062E-03   3.30133800E-04   1.77766047E-02
  0.105468750       1.95312500E-02  -1.87336607E-03   3.40469822E-04   1.77754033E-02
  0.113281250       1.95312500E-02  -2.13069562E-03   3.48342379E-04   1.77752618E-02
  0.121093750       1.95312500E-02  -2.39338423E-03   3.54175165E-04   1.77761745E-02
  0.128906250       1.95312500E-02  -2.66007381E-03   3.58349353E-04   1.77781247E-02
  0.136718750       1.95312500E-02  -2.92965164E-03   3.61193117E-04   1.77810900E-02
  0.144531250       1.95312500E-02  -3.20121367E-03   3.62988416E-04   1.77850537E-02
  0.152343750       1.95312500E-02  -3.47403507E-03   3.63970466E-04   1.77899916E-02
  0.160156250       1.95312500E-02  -3.74754379E-03   3.64329579E-04   1.77958831E-02
  0.167968750       1.95312500E-02  -4.02129069E-03   3.64216947E-04   1.78027116E-02
  0.175781250       1.95312500E-02  -4.29492351E-03   3.63747356E-04   1.78104676E-02
  0.183593750       1.95312500E-02  -4.56816005E-03   3.63004860E-04   1.78191476E-02
  0.191406250       1.95312500E-02  -4.84077819E-03   3.62045132E-04   1.78287402E-02
  0.199218750       1.95312500E-02  -5.11258980E-03   3.60907667E-04   1.78392529E-02
  0.207031250       1.95312500E-02  -5.38342725E-03   3.59603117E-04   1.78506859E-02
  0.214843750       1.95312500E-02  -5.65313501E-03   3.58132529E-04   1.78630482E-02
  0.222656250       1.95312500E-02  -5.92155103E-03   3.56481207E-04   1.78763513E-02
  0.230468750       1.95312500E-02  -6.18850347E-03   3.54625197E-04   1.78906098E-02
  0.238281250       1.95312500E-02  -6.45380281E-03   3.52531410E-04   1.79058462E-02
  0.246093750       1.95312500E-02  -6.71723112E-03   3.50159797E-04   1.79220811E-02
  0.253906250       1.95312500E-02  -6.97854720E-03   3.47464287E-04   1.79393291E-02
  0.261718750       1.95312500E-02  -7.23747630E-03   3.44395725E-04   1.79576129E-02
  0.269531250       1.95312500E-02  -7.49371015E-03   3.40904167E-04   1.79769546E-02
  0.277343750       1.95312500E-02  -7.74690229E-03   3.36934725E-04   1.79973803E-02
  0.285156250       1.95312500E-02  -7.99666904E-03   3.32434080E-04   1.80189107E-02
  0.292968750       1.95312500E-02  -8.24258663E-03   3.27344344E-04   1.80415660E-02
  0.300781250       1.95312500E-02  -8.48419592E-03   3.21611238E-04   1.80653613E-02
  0.308593750       1.95312500E-02  -8.72100331E-03   3.15185636E-04   1.80903133E-02
  0.316406250       1.95312500E-02  -8.95247608E-03   3.08011891E-04   1.81164406E-02
  0.324218750       1.95312500E-02  -9.17804427E-03   3.00040556E-04   1.81437507E-02
  0.332031250       1.95312500E-02  -9.39710531E-03   2.91228585E-04   1.81722492E-02
  0.339843750       1.95312500E-02  -9.60902870E-03   2.81527697E-04   1.82019342E-02
  0.347656250       1.95312500E-02  -9.81315970E-03   2.70901772E-04   1.82328094E-02
  0.355468750       1.95312500E-02  -1.00088064E-02   2.59314082E-04   1.82648674E-02
  0.363281250       1.95312500E-02  -1.01952609E-02   2.46736512E-04   1.82980932E-02
  0.371093750       1.95312500E-02  -1.03718024E-02   2.33144150E-04   1.83324683E-02
  0.378906250       1.95312500E-02  -1.05376923E-02   2.18520203E-04   1.83679629E-02
  0.386718750       1.95312500E-02  -1.06921913E-02   2.02849566E-04   1.84045434E-02
  0.394531250       1.95312500E-02  -1.08345468E-02   1.86125268E-04   1.84421763E-02
  0.402343750       1.95312500E-02  -1.09640136E-02   1.68358747E-04   1.84808020E-02
  0.410156250       1.95312500E-02  -1.10798581E-02   1.49558458E-04   1.85203720E-02
  0.417968750       1.95312500E-02  -1.11813527E-02   1.29742053E-04   1.85608193E-02
  0.425781250       1.95312500E-02  -1.12677971E-02   1.08941480E-04   1.86020769E-02
  0.433593750       1.95312500E-02  -1.13385096E-02   8.71949596E-05   1.86440647E-02
  0.441406250       1.95312500E-02  -1.13928458E-02   6.45485779E-05   1.86866876E-02
  0.449218750       1.95312500E-02  -1.14302030E-02   4.10595494E-05   1.87298525E-02
  0.457031250       1.95312500E-02  -1.14500262E-02   1.67978033E-05   1.87734533E-02
  0.464843750       1.95312500E-02  -1.14518050E-02  -8.16373176E-06   1.88173782E-02
  0.472656250       1.95312500E-02  -1.14350971E-02  -3.37404526E-05   1.88615005E-02
  0.480468750       1.95312500E-02  -1.13995243E-02  -5.98361112E-05   1.89056974E-02
  0.488281250       1.95312500E-02  -1.13447700E-02  -8.63476962E-05   1.89498384E-02
  0.496093750       1.95312500E-02  -1.12706069E-02  -1.13168237E-04   1.89937744E-02
  0.503906250       1.95312500E-02  -1.11768860E-02  -1.40170770E-04   1.90373641E-02
  0.511718750       1.95312500E-02  -1.10635469E-02  -1.67238933E-04   1.90804545E-02
  0.519531250       1.95312500E-02  -1.09306239E-02  -1.94237771E-04   1.91228874E-02
  0.527343750       1.95312500E-02  -1.07782409E-02  -2.21032518E-04   1.91645138E-02
  0.535156250       1.95312500E-02  -1.06066186E-02  -2.47482647E-04   1.92051753E-02
  0.542968750       1.95312500E-02  -1.04160756E-02  -2.73440673E-04   1.92447100E-02
  0.550781250       1.95312500E-02  -1.02070440E-02  -2.98764615E-04   1.92829557E-02
  0.558593750       1.95312500E-02  -9.98004712E-03  -3.23308574E-04   1.93197653E-02
  0.566406250       1.95312500E-02  -9.73570999E-03  -3.46928660E-04   1.93549804E-02
  0.574218750       1.95312500E-02  -9.47475992E-03  -3.69479705E-04   1.93884540E-02
  0.582031250       1.95312500E-02  -9.19802207E-03  -3.90826142E-04   1.94200482E-02
  0.589843750       1.95312500E-02  -8.90641194E-03  -4.10831621E-04   1.94496289E-02
  0.597656250       1.95312500E-02  -8.60094279E-03  -4.29369393E-04   1.94770675E-02
  0.605468750       1.95312500E-02  -8.28271173E-03  -4.46320104E-04   1.95022523E-02
  0.613281250       1.95312500E-02  -7.95289222E-03  -4.61576157E-04   1.95250809E-02
  0.621093750       1.95312500E-02  -7.61273131E-03  -4.75031848E-04   1.95454620E-02
  0.628906250       1.95312500E-02  -7.26354029E-03  -4.86603269E-04   1.95633210E-02
  0.636718750       1.95312500E-02  -6.90668449E-03  -4.96213615E-04   1.95785966E-02
  0.644531250       1.95312500E-02  -6.54358044E-03  -5.03801391E-04   1.95912421E-02
  0.652343750       1.95312500E-02  -6.17567915E-03  -5.09319652E-04   1.96012333E-02
  0.660156250       1.95312500E-02  -5.80445956E-03  -5.12734463E-04   1.96085516E-02
  0.667968750       1.95312500E-02  -5.43142203E-03  -5.14026207E-04   1.96132027E-02
  0.675781250       1.95312500E-02  -5.05807344E-03  -5.13196806E-04   1.96152031E-02
  0.683593750       1.95312500E-02  -4.68591601E-03  -5.10255690E-04   1.96145978E-02
  0.691406250       1.95312500E-02  -4.31643147E-03  -5.05231903E-04   1.96114369E-02
  0.699218750       1.95312500E-02  -3.95108713E-03  -4.98166017E-04   1.96057912E-02
  0.707031250       1.95312500E-02  -3.59131582E-03  -4.89115599E-04   1.95977464E-02