 VARIABLES="X","Y","U","V","P"
 ZONE F=POINT, I=          64 , J=          64
   7.81250000E-03   7.81250000E-03   3.70092239E-05  -3.71971146E-05   3.73993330E-02
   2.34375000E-02   7.81250000E-03   1.69214152E-04  -9.54495627E-05   3.74047868E-02
   3.90625000E-02   7.81250000E-03   3.77581746E-04  -1.13425551E-04   3.73914316E-02
   5.46875000E-02   7.81250000E-03   5.94152138E-04  -1.03652354E-04   3.73557471E-02
   7.03125000E-02   7.81250000E-03   7.76479021E-04  -7.91812854E-05   3.72989513E-02
   8.59375000E-02   7.81250000E-03   9.03500069E-04  -4.83448785E-05   3.72236446E-02
  0.101562500       7.81250000E-03   9.66833730E-04  -1.54901936E-05   3.71323675E-02
  0.117187500       7.81250000E-03   9.64197505E-04   1.76312315E-05   3.70270461E-02
  0.132812500       7.81250000E-03   8.95316713E-04   5.07617260E-05   3.69089395E-02
  0.148437500       7.81250000E-03   7.59667077E-04   8.44072420E-05   3.67787480E-02
  0.164062500       7.81250000E-03   5.55400387E-04   1.19386365E-04   3.66367772E-02
  0.179687500       7.81250000E-03   2.78989261E-04   1.56560869E-04   3.64831053E-02
  0.195312500       7.81250000E-03  -7.47107697E-05   1.96686509E-04   3.63177992E-02
  0.210937500       7.81250000E-03  -5.12151862E-04   2.40314388E-04   3.61410566E-02
  0.226562500       7.81250000E-03  -1.04062632E-03   2.87732750E-04   3.59533988E-02
  0.242187500       7.81250000E-03  -1.66766928E-03   3.38896934E-04   3.57558280E-02
  0.257812500       7.81250000E-03  -2.40034517E-03   3.93381371E-04   3.55499759E-02
  0.273437500       7.81250000E-03  -3.24444496E-03   4.50339285E-04   3.53382342E-02
  0.289062500       7.81250000E-03  -4.20357939E-03   5.08434721E-04   3.51239182E-02
  0.304687500       7.81250000E-03  -5.27819851E-03   5.65839931E-04   3.49113643E-02
  0.320312500       7.81250000E-03  -6.46462571E-03   6.20257051E-04   3.47059220E-02
  0.335937500       7.81250000E-03  -7.75410095E-03   6.68902474E-04   3.45139503E-02
  0.351562500       7.81250000E-03  -9.13193263E-03   7.08626059E-04   3.43426764E-02
  0.367187500       7.81250000E-03  -1.05768526E-02   7.36001588E-04   3.42000090E-02
  0.382812500       7.81250000E-03  -1.20606031E-02   7.47471757E-04   3.40941921E-02
  0.398437500       7.81250000E-03  -1.35479383E-02   7.39597366E-04   3.40333395E-02
  0.414062500       7.81250000E-03  -1.49970111E-02   7.09216867E-04   3.40249091E-02
  0.429687500       7.81250000E-03  -1.63602941E-02   6.53812196E-04   3.40749100E-02
  0.445312500       7.81250000E-03  -1.75860245E-02   5.71672223E-04   3.41873653E-02
  0.460937500       7.81250000E-03  -1.86201595E-02   4.62216034E-04   3.43634859E-02
  0.476562500       7.81250000E-03  -1.94088686E-02   3.26235022E-04   3.46010141E-02
  0.492187500       7.81250000E-03  -1.99014358E-02   1.66057260E-04   3.48938443E-02
  0.507812500       7.81250000E-03  -2.00534388E-02  -1.43455600E-05   3.52315307E-02
  0.523437500       7.81250000E-03  -1.98299643E-02  -2.09443460E-04   3.55996750E-02
  0.539062500       7.81250000E-03  -1.92087609E-02  -4.12099384E-04   3.59801240E-02
  0.554687500       7.81250000E-03  -1.81830339E-02  -6.13990298E-04   3.63516659E-02
  0.570312500       7.81250000E-03  -1.67634785E-02  -8.05957301E-04   3.66913229E-02
  0.585937500       7.81250000E-03  -1.49794556E-02  -9.78489290E-04   3.69757861E-02
  0.601562500       7.81250000E-03  -1.28790513E-02  -1.12237211E-03   3.71832214E-02
  0.617187500       7.81250000E-03  -1.05277607E-02  -1.22939993E-03   3.72949541E-02
  0.632812500       7.81250000E-03  -8.00578296E-03  -1.29307946E-03   3.72972265E-02
  0.648437500       7.81250000E-03  -5.40392846E-03  -1.30928855E-03   3.71824428E-02
  0.664062500       7.81250000E-03  -2.81838910E-03  -1.27677119E-03   3.69501486E-02
  0.679687500       7.81250000E-03  -3.44693079E-04  -1.19744241E-03   3.66071090E-02
  0.695312500       7.81250000E-03   1.92855508E-03  -1.07631390E-03   3.61668244E-02
  0.710937500       7.81250000E-03   3.92565038E-03  -9.21275991E-04   3.56483012E-02
  0.726562500       7.81250000E-03   5.58872614E-03  -7.42277654E-04   3.50743160E-02
  0.742187500       7.81250000E-03   6.88100047E-03  -5.50455530E-04   3.44694555E-02
  0.757812500       7.81250000E-03   7.78809749E-03  -3.57077923E-04   3.38579565E-02
  0.773437500       7.81250000E-03   8.31723865E-03  -1.72475833E-04   3.32619362E-02
  0.789062500       7.81250000E-03   8.49451870E-03  -5.19344121E-06   3.26999314E-02
  0.804687500       7.81250000E-03   8.36074539E-03   1.38599484E-04   3.21860276E-02
  0.820312500       7.81250000E-03   7.96629768E-03   2.55502382E-04   3.17295417E-02
  0.835937500       7.81250000E-03   7.36576319E-03   3.44701810E-04   3.13353315E-02
  0.851562500       7.81250000E-03   6.61322195E-03   4.07522661E-04   3.10044624E-02
  0.867187500       7.81250000E-03   5.75851463E-03   4.46877413E-04   3.07350419E-02
  0.882812500       7.81250000E-03   4.84497147E-03   4.66366124E-04   3.05232666E-02
  0.898437500       7.81250000E-03   3.90909100E-03   4.69220628E-04   3.03644650E-02
  0.914062500       7.81250000E-03   2.98263738E-03   4.56942304E-04   3.02539058E-02
  0.929687500       7.81250000E-03   2.09759339E-03   4.27813357E-04   3.01873535E-02
  0.945312500       7.81250000E-03   1.29400019E-03   3.75492353E-04   3.01608071E-02
  0.960937500       7.81250000E-03   6.29014336E-04   2.89204618E-04   3.01690474E-02
  0.976562500       7.81250000E-03   1.79412003E-04   1.60106807E-04   3.02020907E-02
  0.992187500       7.81250000E-03   9.57965585E-06   9.48761135E-06   3.02390121E-02
   7.81250000E-03   2.34375000E-02   9.62128324E-05  -1.70860207E-04   3.73938829E-02
   2.34375000E-02   2.34375000E-02   3.74511466E-04  -3.73304589E-04   3.73991542E-02
   3.90625000E-02   2.34375000E-02   7.54099688E-04  -4.24672791E-04   3.73846926E-02
   5.46875000E-02   2.34375000E-02   1.11660431E-03  -3.72626120E-04   3.73503007E-02
   7.03125000E-02   2.34375000E-02   1.38477748E-03  -2.61851208E-04   3.72971892E-02
   8.59375000E-02   2.34375000E-02   1.51315425E-03  -1.22212601E-04   3.72272655E-02
  0.101562500       2.34375000E-02   1.47730694E-03   2.97584738E-05   3.71424668E-02
  0.117187500       2.34375000E-02   1.26432138E-03   1.86884514E-04   3.70443426E-02
  0.132812500       2.34375000E-02   8.65894603E-04   3.47711873E-04   3.69339883E-02
  0.148437500       2.34375000E-02   2.74053367E-04   5.13860898E-04   3.68120596E-02
  0.164062500       2.34375000E-02  -5.21051814E-04   6.88234868E-04   3.66788805E-02
  0.179687500       2.34375000E-02  -1.53188407E-03   8.73904908E-04   3.65345702E-02
  0.195312500       2.34375000E-02  -2.77328212E-03   1.07341295E-03   3.63791957E-02
  0.210937500       2.34375000E-02  -4.26156586E-03   1.28831330E-03   3.62129398E-02
  0.226562500       2.34375000E-02  -6.01317035E-03   1.51884137E-03   3.60362083E-02
  0.242187500       2.34375000E-02  -8.04290548E-03   1.76362321E-03   3.58498320E-02
  0.257812500       2.34375000E-02  -1.03619266E-02   2.01944471E-03   3.56551930E-02
  0.273437500       2.34375000E-02  -1.29754823E-02   2.28106510E-03   3.54543105E-02
  0.289062500       2.34375000E-02  -1.58805363E-02   2.54107546E-03   3.52500640E-02
  0.304687500       2.34375000E-02  -1.90634839E-02   2.78997933E-03   3.50463167E-02
  0.320312500       2.34375000E-02  -2.24980228E-02   3.01632122E-03   3.48478518E-02
  0.335937500       2.34375000E-02  -2.61434317E-02   3.20699299E-03   3.46603841E-02
  0.351562500       2.34375000E-02  -2.99435295E-02   3.34776705E-03   3.44906189E-02
  0.367187500       2.34375000E-02  -3.38263921E-02   3.42396880E-03   3.43458951E-02
  0.382812500       2.34375000E-02  -3.77050415E-02   3.42126726E-03   3.42340507E-02
  0.398437500       2.34375000E-02  -4.14792225E-02   3.32671171E-03   3.41628976E-02
  0.414062500       2.34375000E-02  -4.50382754E-02   3.12964688E-03   3.41397971E-02
  0.429687500       2.34375000E-02  -4.82649431E-02   2.82275281E-03   3.41707952E-02
  0.445312500       2.34375000E-02  -5.10399491E-02   2.40290328E-03   3.42601575E-02
  0.460937500       2.34375000E-02  -5.32473549E-02   1.87196117E-03   3.44096720E-02
  0.476562500       2.34375000E-02  -5.47800735E-02   1.23733247E-03   3.46176699E-02
  0.492187500       2.34375000E-02  -5.55454306E-02   5.12267812E-04   3.48789096E-02
  0.507812500       2.34375000E-02  -5.54704368E-02  -2.84198439E-04   3.51837985E-02
  0.523437500       2.34375000E-02  -5.45068160E-02  -1.12738891E-03   3.55190933E-02
  0.539062500       2.34375000E-02  -5.26348799E-02  -1.98805146E-03   3.58675346E-02
  0.554687500       2.34375000E-02  -4.98660542E-02  -2.83340248E-03   3.62089500E-02
  0.570312500       2.34375000E-02  -4.62445244E-02  -3.62850795E-03   3.65214124E-02
  0.585937500       2.34375000E-02  -4.18474451E-02  -4.33799671E-03   3.67823914E-02
  0.601562500       2.34375000E-02  -3.67836505E-02  -4.92807943E-03   3.69707868E-02
  0.617187500       2.34375000E-02  -3.11907995E-02  -5.36890188E-03   3.70685980E-02
  0.632812500       2.34375000E-02  -2.52306685E-02  -5.63680613E-03   3.70624512E-02
  0.648437500       2.34375000E-02  -1.90827474E-02  -5.71648264E-03   3.69450785E-02
  0.664062500       2.34375000E-02  -1.29363686E-02  -5.60265873E-03   3.67160738E-02
  0.679687500       2.34375000E-02  -6.98156748E-03  -5.30121243E-03   3.63821015E-02
  0.695312500       2.34375000E-02  -1.39924395E-03  -4.82925586E-03   3.59563231E-02
  0.710937500       2.34375000E-02   3.64856166E-03  -4.21434408E-03   3.54572497E-02
  0.726562500       2.34375000E-02   8.02778918E-03  -3.49258375E-03   3.49068865E-02
  0.742187500       2.34375000E-02   1.16398055E-02  -2.70546647E-03   3.43288518E-02
  0.757812500       2.34375000E-02   1.44260637E-02  -1.89640233E-03   3.37462686E-02
  0.773437500       2.34375000E-02   1.63697042E-02  -1.10686023E-03   3.31800319E-02
  0.789062500       2.34375000E-02   1.74937956E-02  -3.73056915E-04   3.26473825E-02
  0.804687500       2.34375000E-02   1.78564526E-02   2.76750070E-04   3.21612880E-02
  0.820312500       2.34375000E-02   1.75434817E-02   8.23989278E-04   3.17300484E-02
  0.835937500       2.34375000E-02   1.66592561E-02   1.26022822E-03   3.13577130E-02
  0.851562500       2.34375000E-02   1.53171103E-02   1.58596446E-03   3.10448650E-02
  0.867187500       2.34375000E-02   1.36309536E-02   1.80860283E-03   3.07893567E-02
  0.882812500       2.34375000E-02   1.17091648E-02   1.93929230E-03   3.05873416E-02
  0.898437500       2.34375000E-02   9.65194404E-03   1.98872807E-03   3.04341055E-02
  0.914062500       2.34375000E-02   7.55305588E-03   1.96211762E-03   3.03248763E-02
  0.929687500       2.34375000E-02   5.50622679E-03   1.85385672E-03   3.02551910E-02
  0.945312500       2.34375000E-02   3.61499866E-03   1.64361706E-03   3.02209482E-02
  0.960937500       2.34375000E-02   2.00182805E-03   1.29858148E-03   3.02176364E-02
  0.976562500       2.34375000E-02   8.07365926E-04   7.94136489E-04   3.02390307E-02
  0.992187500       2.34375000E-02   1.66629718E-04   1.85475030E-04   3.02759446E-02
   7.81250000E-03   3.90625000E-02   1.14312163E-04  -3.81890277E-04   3.74077857E-02
   2.34375000E-02   3.90625000E-02   4.22373007E-04  -7.49777129E-04   3.74130569E-02
   3.90625000E-02   3.90625000E-02   8.01100861E-04  -8.07792123E-04   3.73976305E-02
   5.46875000E-02   3.90625000E-02   1.10657024E-03  -6.58758159E-04   3.73633988E-02
   7.03125000E-02   3.90625000E-02   1.24821742E-03  -3.86815518E-04   3.73121835E-02
   8.59375000E-02   3.90625000E-02   1.16987329E-03  -4.85508099E-05   3.72458175E-02
  0.101562500       3.90625000E-02   8.36721854E-04   3.23832966E-04   3.71659286E-02
  0.117187500       3.90625000E-02   2.25427153E-04   7.15840142E-04   3.70738134E-02
  0.132812500       3.90625000E-02  -6.82816026E-04   1.12419191E-03   3.69703509E-02
  0.148437500       3.90625000E-02  -1.90654350E-03   1.55173242E-03   3.68560404E-02
  0.164062500       3.90625000E-02  -3.46605806E-03   2.00378522E-03   3.67310755E-02
  0.179687500       3.90625000E-02  -5.38381981E-03   2.48577283E-03   3.65954414E-02
  0.195312500       3.90625000E-02  -7.68362544E-03   3.00159724E-03   3.64490300E-02
  0.210937500       3.90625000E-02  -1.03888903E-02   3.55255557E-03   3.62918004E-02
  0.226562500       3.90625000E-02  -1.35202482E-02   4.13646782E-03   3.61238867E-02
  0.242187500       3.90625000E-02  -1.70926452E-02   4.74706292E-03   3.59457619E-02
  0.257812500       3.90625000E-02  -2.11120490E-02   5.37340203E-03   3.57583389E-02
  0.273437500       3.90625000E-02  -2.55719721E-02   5.99960331E-03   3.55631411E-02
  0.289062500       3.90625000E-02  -3.04502025E-02   6.60488848E-03   3.53625119E-02
  0.304687500       3.90625000E-02  -3.57058942E-02   7.16391020E-03   3.51598114E-02
  0.320312500       3.90625000E-02  -4.12774310E-02   7.64758699E-03   3.49593647E-02
  0.335937500       3.90625000E-02  -4.70814072E-02   8.02427437E-03   3.47662717E-02
  0.351562500       3.90625000E-02  -5.30129746E-02   8.26135837E-03   3.45870890E-02
  0.367187500       3.90625000E-02  -5.89476675E-02   8.32716841E-03   3.44290175E-02
  0.382812500       3.90625000E-02  -6.47447631E-02   8.19309521E-03   3.42999808E-02
  0.398437500       3.90625000E-02  -7.02520162E-02   7.83564150E-03   3.42082679E-02
  0.414062500       3.90625000E-02  -7.53112882E-02   7.23840483E-03   3.41615193E-02
  0.429687500       3.90625000E-02  -7.97648877E-02   6.39361702E-03   3.41668390E-02
  0.445312500       3.90625000E-02  -8.34621191E-02   5.30364178E-03   3.42290737E-02
  0.460937500       3.90625000E-02  -8.62656459E-02   3.98151902E-03   3.43511663E-02
  0.476562500       3.90625000E-02  -8.80571157E-02   2.45131762E-03   3.45322564E-02
  0.492187500       3.90625000E-02  -8.87421593E-02   7.48016639E-04   3.47680748E-02
  0.507812500       3.90625000E-02  -8.82545561E-02  -1.08324457E-03   3.50499563E-02
  0.523437500       3.90625000E-02  -8.65595192E-02  -2.98776338E-03   3.53649706E-02
  0.539062500       3.90625000E-02  -8.36555511E-02  -4.90439730E-03   3.56964320E-02
  0.554687500       3.90625000E-02  -7.95755014E-02  -6.76680170E-03   3.60244475E-02
  0.570312500       3.90625000E-02  -7.43871182E-02  -8.50597117E-03   3.63269001E-02
  0.585937500       3.90625000E-02  -6.81926757E-02  -1.00530945E-02   3.65812927E-02
  0.601562500       3.90625000E-02  -6.11275285E-02  -1.13430265E-02   3.67660448E-02
  0.617187500       3.90625000E-02  -5.33574969E-02  -1.23180021E-02   3.68626714E-02
  0.632812500       3.90625000E-02  -4.50749435E-02  -1.29316058E-02   3.68573666E-02
  0.648437500       3.90625000E-02  -3.64932120E-02  -1.31525788E-02   3.67424637E-02
  0.664062500       3.90625000E-02  -2.78394707E-02  -1.29679572E-02   3.65172662E-02
  0.679687500       3.90625000E-02  -1.93460286E-02  -1.23854280E-02   3.61883044E-02
  0.695312500       3.90625000E-02  -1.12404749E-02  -1.14341658E-02   3.57688740E-02
  0.710937500       3.90625000E-02  -3.73504637E-03  -1.01638846E-02   3.52777131E-02
  0.726562500       3.90625000E-02   2.98379455E-03  -8.64228792E-03   3.47372815E-02
  0.742187500       3.90625000E-02   8.76493286E-03  -6.95004314E-03   3.41714695E-02
  0.757812500       3.90625000E-02   1.35006960E-02  -5.17492602E-03   3.36035825E-02
  0.773437500       3.90625000E-02   1.71317626E-02  -3.40406760E-03   3.30544375E-02
  0.789062500       3.90625000E-02   1.96484551E-02  -1.71760353E-03   3.25409584E-02
  0.804687500       3.90625000E-02   2.10885853E-02  -1.82405565E-04   3.20754126E-02
  0.820312500       3.90625000E-02   2.15316489E-02   1.15218386E-03   3.16653810E-02
  0.835937500       3.90625000E-02   2.10904367E-02   2.25664163E-03   3.13138552E-02
  0.851562500       3.90625000E-02   1.99006088E-02   3.12071759E-03   3.10203917E-02
  0.867187500       3.90625000E-02   1.81100033E-02   3.74983181E-03   3.07819825E-02
  0.882812500       3.90625000E-02   1.58697572E-02   4.15933505E-03   3.05939652E-02
  0.898437500       3.90625000E-02   1.33285932E-02   4.36632102E-03   3.04510761E-02
  0.914062500       3.90625000E-02   1.06315054E-02   4.37976187E-03   3.03481109E-02
  0.929687500       3.90625000E-02   7.92333204E-03   4.19048127E-03   3.02805509E-02
  0.945312500       3.90625000E-02   5.35612460E-03   3.76469595E-03   3.02448235E-02
  0.960937500       3.90625000E-02   3.09773441E-03   3.04833148E-03   3.02382745E-02
  0.976562500       3.90625000E-02   1.33904419E-03   1.99680566E-03   3.02591342E-02
  0.992187500       3.90625000E-02   3.05057329E-04   6.56902557E-04   3.03069446E-02
   7.81250000E-03   5.46875000E-02   9.97617681E-05  -5.96469035E-04   3.74456272E-02
   2.34375000E-02   5.46875000E-02   3.43349559E-04  -1.08798989E-03   3.74474153E-02
   3.90625000E-02   5.46875000E-02   5.82629873E-04  -1.08886417E-03   3.74291725E-02
   5.46875000E-02   5.46875000E-02   6.68976281E-04  -7.70780898E-04   3.73935364E-02
   7.03125000E-02   5.46875000E-02   5.11060643E-04  -2.59802502E-04   3.73426527E-02
   8.59375000E-02   5.46875000E-02   5.04833006E-05   3.62085819E-04   3.72783318E-02
  0.101562500       5.46875000E-02  -7.53288972E-04   1.04885607E-03   3.72020043E-02
  0.117187500       5.46875000E-02  -1.93251460E-03   1.78008410E-03   3.71146984E-02
  0.132812500       5.46875000E-02  -3.51698324E-03   2.55141803E-03   3.70170251E-02
  0.148437500       5.46875000E-02  -5.53697767E-03   3.36699979E-03   3.69092226E-02
  0.164062500       5.46875000E-02  -8.02412257E-03   4.23396938E-03   3.67911905E-02
  0.179687500       5.46875000E-02  -1.10106636E-02   5.15870936E-03   3.66626047E-02
  0.195312500       5.46875000E-02  -1.45275639E-02   6.14420976E-03   3.65229920E-02
  0.210937500       5.46875000E-02  -1.86016485E-02   7.18816090E-03   3.63719016E-02
  0.226562500       5.46875000E-02  -2.32520383E-02   8.28150474E-03   3.62089425E-02
  0.242187500       5.46875000E-02  -2.84860432E-02   9.40734893E-03   3.60339545E-02
  0.257812500       5.46875000E-02  -3.42948474E-02   1.05402879E-02   3.58472578E-02
  0.273437500       5.46875000E-02  -4.06495109E-02   1.16463136E-02   3.56496200E-02
  0.289062500       5.46875000E-02  -4.74975370E-02   1.26834884E-02   3.54428887E-02
  0.304687500       5.46875000E-02  -5.47606312E-02   1.36031751E-02   3.52298841E-02
  0.320312500       5.46875000E-02  -6.23340495E-02   1.43523812E-02   3.50144282E-02
  0.335937500       5.46875000E-02  -7.00879097E-02   1.48764700E-02   3.48016247E-02
  0.351562500       5.46875000E-02  -7.78704509E-02   1.51224658E-02   3.45980674E-02
  0.367187500       5.46875000E-02  -8.55129659E-02   1.50425192E-02   3.44114490E-02
  0.382812500       5.46875000E-02  -9.28362310E-02   1.45974280E-02   3.42503861E-02
  0.398437500       5.46875000E-02  -9.96576324E-02   1.37593094E-02   3.41241509E-02
  0.414062500       5.46875000E-02 -0.105798289       1.25140464E-02   3.40417363E-02
  0.429687500       5.46875000E-02 -0.111090034       1.08627006E-02   3.40113938E-02
  0.445312500       5.46875000E-02 -0.115381047       8.82218871E-03   3.40393484E-02
  0.460937500       5.46875000E-02 -0.118540436       6.42528804E-03   3.41295935E-02
  0.476562500       5.46875000E-02 -0.120461814       3.71978479E-03   3.42827924E-02
  0.492187500       5.46875000E-02 -0.121065602       7.67765800E-04   3.44953202E-02
  0.507812500       5.46875000E-02 -0.120300859      -2.35598208E-03   3.47593240E-02
  0.523437500       5.46875000E-02 -0.118145987      -5.56562655E-03   3.50621976E-02
  0.539062500       5.46875000E-02 -0.114609361      -8.76788888E-03   3.53872105E-02
  0.554687500       5.46875000E-02 -0.109730169      -1.18633667E-02   3.57143395E-02
  0.570312500       5.46875000E-02 -0.103579059      -1.47497877E-02   3.60210873E-02
  0.585937500       5.46875000E-02  -9.62586552E-02  -1.73251145E-02   3.62840742E-02
  0.601562500       5.46875000E-02  -8.79036039E-02  -1.94922592E-02   3.64805646E-02
  0.617187500       5.46875000E-02  -7.86797851E-02  -2.11637542E-02   3.65910493E-02
  0.632812500       5.46875000E-02  -6.87821731E-02  -2.22671889E-02   3.66003774E-02
  0.648437500       5.46875000E-02  -5.84313385E-02  -2.27507651E-02   3.64996791E-02
  0.664062500       5.46875000E-02  -4.78678942E-02  -2.25881897E-02   3.62874120E-02
  0.679687500       5.46875000E-02  -3.73450518E-02  -2.17827111E-02   3.59694548E-02
  0.695312500       5.46875000E-02  -2.71192417E-02  -2.03694589E-02   3.55591141E-02
  0.710937500       5.46875000E-02  -1.74392499E-02  -1.84151996E-02   3.50754187E-02
  0.726562500       5.46875000E-02  -8.53459165E-03  -1.60156265E-02   3.45415957E-02
  0.742187500       5.46875000E-02  -6.04087370E-04  -1.32894544E-02   3.39825340E-02
  0.757812500       5.46875000E-02   6.19406113E-03  -1.03704873E-02   3.34225930E-02
  0.773437500       5.46875000E-02   1.17506254E-02  -7.39714410E-03   3.28833945E-02
  0.789062500       5.46875000E-02   1.60104036E-02  -4.50195046E-03   3.23824361E-02
  0.804687500       5.46875000E-02   1.89729035E-02  -1.80158787E-03   3.19320597E-02
  0.820312500       5.46875000E-02   2.06894204E-02   6.10925141E-04   3.15394886E-02
  0.835937500       5.46875000E-02   2.12567113E-02   2.67100008E-03   3.12070735E-02
  0.851562500       5.46875000E-02   2.08079442E-02   4.34415182E-03   3.09332088E-02
  0.867187500       5.46875000E-02   1.95020176E-02   5.62215038E-03   3.07137016E-02
  0.882812500       5.46875000E-02   1.75131448E-02   6.51537254E-03   3.05427536E-02
  0.898437500       5.46875000E-02   1.50225442E-02   7.04129785E-03   3.04141138E-02
  0.914062500       5.46875000E-02   1.22137293E-02   7.20994640E-03   3.03218886E-02
  0.929687500       5.46875000E-02   9.27233603E-03   7.00912718E-03   3.02612893E-02
  0.945312500       5.46875000E-02   6.39071641E-03   6.39414554E-03   3.02292146E-02
  0.960937500       5.46875000E-02   3.77742294E-03   5.28983679E-03   3.02246213E-02
  0.976562500       5.46875000E-02   1.67418807E-03   3.61649645E-03   3.02489754E-02
  0.992187500       5.46875000E-02   3.91531008E-04   1.35323324E-03   3.03068869E-02
   7.81250000E-03   7.03125000E-02   6.16065663E-05  -7.58345239E-04   3.75071764E-02
   2.34375000E-02   7.03125000E-02   1.66592479E-04  -1.27583614E-03   3.75016443E-02
   3.90625000E-02   7.03125000E-02   1.51176893E-04  -1.12616550E-03   3.74781936E-02
   5.46875000E-02   7.03125000E-02  -1.18286691E-04  -5.51645295E-04   3.74394394E-02
   7.03125000E-02   7.03125000E-02  -7.22901605E-04   2.82312074E-04   3.73874791E-02
   8.59375000E-02   7.03125000E-02  -1.71700353E-03   1.27337396E-03   3.73238996E-02
  0.101562500       7.03125000E-02  -3.14354105E-03   2.36660754E-03   3.72498296E-02
  0.117187500       7.03125000E-02  -5.04241511E-03   3.53916967E-03   3.71659622E-02
  0.132812500       7.03125000E-02  -7.45422998E-03   4.78735939E-03   3.70725356E-02
  0.148437500       7.03125000E-02  -1.04210638E-02   6.11664075E-03   3.69693860E-02
  0.164062500       7.03125000E-02  -1.39853265E-02   7.53451511E-03   3.68559584E-02
  0.179687500       7.03125000E-02  -1.81873403E-02   9.04552639E-03   3.67314257E-02
  0.195312500       7.03125000E-02  -2.30619200E-02   1.06477067E-02   3.65947112E-02
  0.210937500       7.03125000E-02  -2.86341682E-02   1.23298578E-02   3.64446566E-02
  0.226562500       7.03125000E-02  -3.49147022E-02   1.40696205E-02   3.62800583E-02
  0.242187500       7.03125000E-02  -4.18947190E-02   1.58321708E-02   3.60999182E-02
  0.257812500       7.03125000E-02  -4.95413430E-02   1.75698623E-02   3.59036736E-02
  0.273437500       7.03125000E-02  -5.77939078E-02   1.92229897E-02   3.56913619E-02
  0.289062500       7.03125000E-02  -6.65618628E-02   2.07218416E-02   3.54641415E-02
  0.304687500       7.03125000E-02  -7.57247210E-02   2.19898298E-02   3.52244452E-02
  0.320312500       7.03125000E-02  -8.51344019E-02   2.29479354E-02   3.49759646E-02
  0.335937500       7.03125000E-02  -9.46199894E-02   2.35195346E-02   3.47240940E-02
  0.351562500       7.03125000E-02 -0.103994295       2.36354657E-02   3.44762057E-02
  0.367187500       7.03125000E-02 -0.113061726       2.32387744E-02   3.42409387E-02
  0.382812500       7.03125000E-02 -0.121626340       2.22884305E-02   3.40283960E-02
  0.398437500       7.03125000E-02 -0.129499346       2.07621083E-02   3.38495821E-02
  0.414062500       7.03125000E-02 -0.136505544       1.86574981E-02   3.37149948E-02
  0.429687500       7.03125000E-02 -0.142487645       1.59925204E-02   3.36348228E-02
  0.445312500       7.03125000E-02 -0.147309393       1.28045883E-02   3.36168408E-02
  0.460937500       7.03125000E-02 -0.150857091       9.14946850E-03   3.36666182E-02
  0.476562500       7.03125000E-02 -0.153040186       5.09954989E-03   3.37859541E-02
  0.492187500       7.03125000E-02 -0.153791130       7.42222765E-04   3.39726433E-02
  0.507812500       7.03125000E-02 -0.153065175      -3.82167427E-03   3.42193060E-02
  0.523437500       7.03125000E-02 -0.150840491      -8.48006271E-03   3.45138237E-02
  0.539062500       7.03125000E-02 -0.147119045      -1.31121837E-02   3.48395966E-02
  0.554687500       7.03125000E-02 -0.141928136      -1.75899379E-02   3.51761431E-02
  0.570312500       7.03125000E-02 -0.135322541      -2.17807032E-02   3.55006158E-02
  0.585937500       7.03125000E-02 -0.127387047      -2.55509876E-02   3.57884690E-02
  0.601562500       7.03125000E-02 -0.118238166      -2.87713148E-02   3.60153876E-02
  0.617187500       7.03125000E-02 -0.108025715      -3.13220471E-02   3.61600518E-02
  0.632812500       7.03125000E-02  -9.69332755E-02  -3.31000537E-02   3.62052023E-02
  0.648437500       7.03125000E-02  -8.51768851E-02  -3.40262875E-02   3.61398943E-02
  0.664062500       7.03125000E-02  -7.30013847E-02  -3.40527929E-02   3.59606370E-02
  0.679687500       7.03125000E-02  -6.06742352E-02  -3.31692733E-02   3.56716849E-02
  0.695312500       7.03125000E-02  -4.84765694E-02  -3.14075351E-02   3.52855176E-02
  0.710937500       7.03125000E-02  -3.66918854E-02  -2.88429521E-02   3.48209962E-02
  0.726562500       7.03125000E-02  -2.55929679E-02  -2.55925767E-02   3.43017578E-02
  0.742187500       7.03125000E-02  -1.54282413E-02  -2.18088087E-02   3.37538682E-02
  0.757812500       7.03125000E-02  -6.40880549E-03  -1.76697485E-02   3.32031474E-02
  0.773437500       7.03125000E-02   1.30245846E-03  -1.33666936E-02   3.26728076E-02
  0.789062500       7.03125000E-02   7.59867672E-03  -9.08932555E-03   3.21816504E-02
  0.804687500       7.03125000E-02   1.24334041E-02  -5.01232035E-03   3.17430645E-02
  0.820312500       7.03125000E-02   1.58202592E-02  -1.28255854E-03   3.13645862E-02
  0.835937500       7.03125000E-02   1.78282335E-02   1.98840816E-03   3.10485810E-02
  0.851562500       7.03125000E-02   1.85744502E-02   4.72851004E-03   3.07927746E-02
  0.867187500       7.03125000E-02   1.82144232E-02   6.90298015E-03   3.05918492E-02
  0.882812500       7.03125000E-02   1.69311706E-02   8.50591529E-03   3.04388981E-02
  0.898437500       7.03125000E-02   1.49254100E-02   9.54637025E-03   3.03264372E-02
  0.914062500       7.03125000E-02   1.24082789E-02   1.00300815E-02   3.02476510E-02
  0.929687500       7.03125000E-02   9.59807821E-03   9.93985403E-03   3.01971864E-02
  0.945312500       7.03125000E-02   6.72260905E-03   9.21978056E-03   3.01719736E-02
  0.960937500       7.03125000E-02   4.02906258E-03   7.77031947E-03   3.01717818E-02
  0.976562500       7.03125000E-02   1.80583657E-03   5.46175335E-03   3.01998034E-02
  0.992187500       7.03125000E-02   4.25672624E-04   2.17018276E-03   3.02630719E-02
   7.81250000E-03   8.59375000E-02   5.06747620E-06  -8.25532246E-04   3.75900082E-02
   2.34375000E-02   8.59375000E-02  -8.93662072E-05  -1.22036063E-03   3.75737809E-02
   3.90625000E-02   8.59375000E-02  -4.57564573E-04  -7.99318776E-04   3.75428870E-02
   5.46875000E-02   8.59375000E-02  -1.20065827E-03   1.32777262E-04   3.74994874E-02
   7.03125000E-02   8.59375000E-02  -2.37920182E-03   1.37976289E-03   3.74452025E-02
   8.59375000E-02   8.59375000E-02  -4.03810991E-03   2.82764994E-03   3.73811573E-02
  0.101562500       8.59375000E-02  -6.22034818E-03   4.41982830E-03   3.73079665E-02
  0.117187500       8.59375000E-02  -8.97257589E-03   6.13577338E-03   3.72258238E-02
  0.132812500       8.59375000E-02  -1.23457331E-02   7.97445327E-03   3.71344239E-02
  0.148437500       8.59375000E-02  -1.63928047E-02   9.94218886E-03   3.70330438E-02
  0.164062500       8.59375000E-02  -2.11650804E-02   1.20442687E-02   3.69204693E-02
  0.179687500       8.59375000E-02  -2.67076306E-02   1.42791327E-02   3.67951132E-02
  0.195312500       8.59375000E-02  -3.30541879E-02   1.66340694E-02   3.66549641E-02
  0.210937500       8.59375000E-02  -4.02216166E-02   1.90820303E-02   3.64978798E-02
  0.226562500       8.59375000E-02  -4.82043028E-02   2.15795450E-02   3.63215134E-02
  0.242187500       8.59375000E-02  -5.69690466E-02   2.40659192E-02   3.61238234E-02
  0.257812500       8.59375000E-02  -6.64511696E-02   2.64638346E-02   3.59030440E-02
  0.273437500       8.59375000E-02  -7.65525550E-02   2.86819935E-02   3.56585234E-02
  0.289062500       8.59375000E-02  -8.71422440E-02   3.06195356E-02   3.53908055E-02
  0.304687500       8.59375000E-02  -9.80599374E-02   3.21717635E-02   3.51022109E-02
  0.320312500       8.59375000E-02 -0.109122157       3.32370438E-02   3.47966403E-02
  0.335937500       8.59375000E-02 -0.120130286       3.37233581E-02   3.44806463E-02
  0.351562500       8.59375000E-02 -0.130879536       3.35544944E-02   3.41627598E-02
  0.367187500       8.59375000E-02 -0.141167641       3.26746851E-02   3.38532701E-02
  0.382812500       8.59375000E-02 -0.150802344       3.10513005E-02   3.35646570E-02
  0.398437500       8.59375000E-02 -0.159606874       2.86762584E-02   3.33095677E-02
  0.414062500       8.59375000E-02 -0.167423129       2.55652927E-02   3.31012122E-02