 VARIABLES="X","Y","U","V","P"
 ZONE F=POINT, I=          16 , J=          16
   3.12500000E-02   3.12500000E-02   8.86388356E-04  -8.90911440E-04   7.91761838E-03
   9.37500000E-02   3.12500000E-02   1.07706559E-03   6.89838140E-04   7.70367403E-03
  0.156250000       3.12500000E-02  -2.13413639E-03   2.51019909E-03   7.36051612E-03
  0.218750000       3.12500000E-02  -8.81459750E-03   4.16050758E-03   6.95570000E-03
  0.281250000       3.12500000E-02  -1.84725523E-02   5.48951421E-03   6.55220682E-03
  0.343750000       3.12500000E-02  -3.02323923E-02   6.26430847E-03   6.22721389E-03
  0.406250000       3.12500000E-02  -4.28062566E-02   6.30513346E-03   6.08769199E-03
  0.468750000       3.12500000E-02  -5.46421483E-02   5.52730775E-03   6.27316721E-03
  0.531250000       3.12500000E-02  -6.40948713E-02   3.92213697E-03   6.93596806E-03
  0.593750000       3.12500000E-02  -6.95473254E-02   1.52661593E-03   8.19622725E-03
  0.656250000       3.12500000E-02  -6.94567412E-02  -1.62158336E-03   1.00758979E-02
  0.718750000       3.12500000E-02  -6.22210391E-02  -5.61934151E-03   1.21593848E-02
  0.781250000       3.12500000E-02  -4.72479016E-02  -9.35985893E-03   1.39373839E-02
  0.843750000       3.12500000E-02  -2.66953874E-02  -1.11996038E-02   1.47901373E-02
  0.906250000       3.12500000E-02  -7.09246937E-03  -8.41189269E-03   1.45528568E-02
  0.968750000       3.12500000E-02   6.57289056E-04   6.53758470E-04   1.39448140E-02
   3.12500000E-02   9.37500000E-02  -2.22028769E-03   4.32126457E-04   8.13301932E-03
   9.37500000E-02   9.37500000E-02  -1.00984192E-02   7.03016715E-03   7.89754651E-03
  0.156250000       9.37500000E-02  -2.35476270E-02   1.28054945E-02   7.56514492E-03
  0.218750000       9.37500000E-02  -4.03318405E-02   1.73090100E-02   7.13925995E-03
  0.281250000       9.37500000E-02  -5.86979613E-02   2.03489326E-02   6.66033337E-03
  0.343750000       9.37500000E-02  -7.70347267E-02   2.14900486E-02   6.20852038E-03
  0.406250000       9.37500000E-02  -9.37592983E-02   2.03701593E-02   5.90563472E-03
  0.468750000       9.37500000E-02 -0.107281819       1.68153178E-02   5.91199426E-03
  0.531250000       9.37500000E-02 -0.116024017       1.08242240E-02   6.40154909E-03
  0.593750000       9.37500000E-02 -0.118464917       2.51209782E-03   7.50904158E-03
  0.656250000       9.37500000E-02 -0.113179117      -7.99147971E-03   9.17414576E-03
  0.718750000       9.37500000E-02  -9.96328294E-02  -2.00423356E-02   1.11703128E-02
  0.781250000       9.37500000E-02  -7.84797817E-02  -3.10766231E-02   1.29539631E-02
  0.843750000       9.37500000E-02  -5.16407117E-02  -3.68906856E-02   1.39221931E-02
  0.906250000       9.37500000E-02  -2.37317868E-02  -3.02525796E-02   1.38715841E-02
  0.968750000       9.37500000E-02  -5.15461573E-03  -3.85177112E-03   1.33861117E-02
   3.12500000E-02  0.156250000      -5.79504203E-03   8.43583420E-03   8.40262882E-03
   9.37500000E-02  0.156250000      -2.05827691E-02   2.16665491E-02   8.06050096E-03
  0.156250000      0.156250000      -3.96122299E-02   3.06218825E-02   7.61684775E-03
  0.218750000      0.156250000      -5.99602945E-02   3.66043560E-02   7.02010747E-03
  0.281250000      0.156250000      -8.02012831E-02   3.96461450E-02   6.29547285E-03
  0.343750000      0.156250000      -9.90221128E-02   3.93415131E-02   5.53498743E-03
  0.406250000      0.156250000     -0.115120083       3.53367105E-02   4.89147101E-03
  0.468750000      0.156250000     -0.127231047       2.74804011E-02   4.56256093E-03
  0.531250000      0.156250000     -0.134173930       1.58432238E-02   4.75189695E-03
  0.593750000      0.156250000     -0.134932354       6.90279179E-04   5.60090970E-03
  0.656250000      0.156250000     -0.128821224      -1.75718218E-02   7.12198950E-03
  0.718750000      0.156250000     -0.115512639      -3.73260602E-02   9.14692320E-03
  0.781250000      0.156250000      -9.50100049E-02  -5.54615483E-02   1.11646298E-02
  0.843750000      0.156250000      -6.80484921E-02  -6.63228482E-02   1.25453193E-02
  0.906250000      0.156250000      -3.72129679E-02  -5.95849976E-02   1.28950048E-02
  0.968750000      0.156250000      -1.06570628E-02  -1.96718592E-02   1.25299627E-02
   3.12500000E-02  0.218750000      -7.44423550E-03   2.16657240E-02   8.37219600E-03
   9.37500000E-02  0.218750000      -2.51663364E-02   4.09246795E-02   7.91248959E-03
  0.156250000      0.218750000      -4.60675880E-02   5.12721464E-02   7.26793148E-03
  0.218750000      0.218750000      -6.70207888E-02   5.72386459E-02   6.38011470E-03
  0.281250000      0.218750000      -8.69283378E-02   5.91499098E-02   5.28778369E-03
  0.343750000      0.218750000     -0.104868516       5.65941408E-02   4.10700589E-03
  0.406250000      0.218750000     -0.119917892       4.92314622E-02   3.02420254E-03
  0.468750000      0.218750000     -0.131174192       3.69559079E-02   2.27258168E-03
  0.531250000      0.218750000     -0.137792185       1.99326836E-02   2.08368665E-03
  0.593750000      0.218750000     -0.139044493      -1.38571113E-03   2.61269510E-03
  0.656250000      0.218750000     -0.134415805      -2.62359995E-02   3.96961998E-03
  0.718750000      0.218750000     -0.123386100      -5.30043095E-02   6.05711853E-03
  0.781250000      0.218750000     -0.105310678      -7.83695653E-02   8.42832774E-03
  0.843750000      0.218750000      -7.97792822E-02  -9.59194899E-02   1.04257232E-02
  0.906250000      0.218750000      -4.76353951E-02  -9.29822624E-02   1.14090145E-02
  0.968750000      0.218750000      -1.50724044E-02  -4.54076529E-02   1.12824254E-02
   3.12500000E-02  0.281250000      -7.29436707E-03   3.63968723E-02   7.76959118E-03
   9.37500000E-02  0.281250000      -2.46703550E-02   6.12740852E-02   7.22456258E-03
  0.156250000      0.281250000      -4.49317247E-02   7.20676333E-02   6.36737887E-03
  0.218750000      0.281250000      -6.47728443E-02   7.72253424E-02   5.16270055E-03
  0.281250000      0.281250000      -8.32628533E-02   7.75551200E-02   3.67469573E-03
  0.343750000      0.281250000      -9.97954831E-02   7.26623759E-02   2.04527681E-03
  0.406250000      0.281250000     -0.113778293       6.22011423E-02   4.89151920E-04
  0.468750000      0.281250000     -0.124595150       4.60684672E-02  -7.30756612E-04
  0.531250000      0.281250000     -0.131604373       2.44577192E-02  -1.35381811E-03
  0.593750000      0.281250000     -0.134178400      -2.07561348E-03  -1.19731447E-03
  0.656250000      0.281250000     -0.131818473      -3.25290971E-02  -7.39568495E-05
  0.718750000      0.281250000     -0.123890929      -6.56666383E-02   2.03361805E-03
  0.781250000      0.281250000     -0.109275088      -9.84011367E-02   4.76313196E-03
  0.843750000      0.281250000      -8.64880532E-02 -0.124212712       7.45370705E-03
  0.906250000      0.281250000      -5.47104217E-02 -0.128619075       9.21972468E-03
  0.968750000      0.281250000      -1.82843916E-02  -7.87685141E-02   9.45761614E-03
   3.12500000E-02  0.343750000      -5.93764149E-03   4.96227741E-02   6.57239184E-03
   9.37500000E-02  0.343750000      -2.07325965E-02   8.02053064E-02   5.98813919E-03
  0.156250000      0.343750000      -3.85792740E-02   9.12315398E-02   4.95934067E-03
  0.218750000      0.343750000      -5.60223795E-02   9.53385755E-02   3.48153524E-03
  0.281250000      0.343750000      -7.21695349E-02   9.40788388E-02   1.64063973E-03
  0.343750000      0.343750000      -8.66407901E-02   8.71490240E-02  -4.03197366E-04
  0.406250000      0.343750000      -9.91178453E-02   7.41862506E-02  -2.41595693E-03
  0.468750000      0.343750000     -0.109235153       5.50328828E-02  -4.10999823E-03
  0.531250000      0.343750000     -0.116536900       2.98208743E-02  -5.19058295E-03
  0.593750000      0.343750000     -0.120498285      -8.88384413E-04  -5.43080876E-03
  0.656250000      0.343750000     -0.120661356      -3.59014347E-02  -4.61414829E-03
  0.718750000      0.343750000     -0.116405383      -7.44701400E-02  -2.58631189E-03
  0.781250000      0.343750000     -0.106276296     -0.114339814       3.93372466E-04
  0.843750000      0.343750000      -8.77313167E-02 -0.149607360       3.71052674E-03
  0.906250000      0.343750000      -5.82401901E-02 -0.164496511       6.28871284E-03
  0.968750000      0.343750000      -2.02531312E-02 -0.117308155       6.98254071E-03
   3.12500000E-02  0.406250000      -3.91902821E-03   5.94745986E-02   4.96566342E-03
   9.37500000E-02  0.406250000      -1.47994123E-02   9.60186720E-02   4.38270438E-03
  0.156250000      0.406250000      -2.90199481E-02  0.107477352       3.24486499E-03
  0.218750000      0.406250000      -4.30653542E-02  0.110579282       1.57473248E-03
  0.281250000      0.406250000      -5.59858978E-02  0.107911006      -5.30608697E-04
  0.343750000      0.406250000      -6.75591454E-02   9.93734375E-02  -2.90492456E-03
  0.406250000      0.406250000      -7.77158663E-02   8.46131220E-02  -5.30571491E-03
  0.468750000      0.406250000      -8.63728672E-02   6.34011179E-02  -7.42691522E-03
  0.531250000      0.406250000      -9.33510885E-02   3.57543081E-02  -8.93748738E-03
  0.593750000      0.406250000      -9.83456075E-02   2.15386599E-03  -9.55442712E-03
  0.656250000      0.406250000     -0.101002827      -3.61066870E-02  -9.08787642E-03
  0.718750000      0.406250000     -0.100847505      -7.86634982E-02  -7.26478687E-03
  0.781250000      0.406250000      -9.62344110E-02 -0.124881402      -4.22940543E-03
  0.843750000      0.406250000      -8.35120380E-02 -0.170330435      -4.79729002E-04
  0.906250000      0.406250000      -5.83011694E-02 -0.198474929       2.81903986E-03
  0.968750000      0.406250000      -2.10283101E-02 -0.158590302       4.00805706E-03
   3.12500000E-02  0.468750000      -1.73024088E-03   6.51203543E-02   3.21207847E-03
   9.37500000E-02  0.468750000      -8.13496485E-03  0.107651487       2.67005572E-03
  0.156250000      0.468750000      -1.79970115E-02  0.119923592       1.49726623E-03
  0.218750000      0.468750000      -2.79638320E-02  0.122147746      -2.62508314E-04
  0.281250000      0.468750000      -3.69419530E-02  0.118250892      -2.51231901E-03
  0.343750000      0.468750000      -4.48043868E-02  0.108485803      -5.09175938E-03
  0.406250000      0.468750000      -5.17044812E-02   9.25794169E-02  -7.76057271E-03
  0.468750000      0.468750000      -5.78759089E-02   7.02880621E-02  -1.02035375E-02
  0.531250000      0.468750000      -6.35514632E-02   4.15464528E-02  -1.20596215E-02
  0.593750000      0.468750000      -6.88549951E-02   6.68296777E-03  -1.29866730E-02
  0.656250000      0.468750000      -7.36645162E-02  -3.31485085E-02  -1.28554311E-02
  0.718750000      0.468750000      -7.78195262E-02  -7.76053891E-02  -1.13486126E-02
  0.781250000      0.468750000      -7.96318278E-02 -0.128729865      -8.49102903E-03
  0.843750000      0.468750000      -7.42351040E-02 -0.184595704      -4.58405726E-03
  0.906250000      0.468750000      -5.51990792E-02 -0.228453666      -7.44836871E-04
  0.968750000      0.468750000      -2.07318533E-02 -0.200350434       9.30137117E-04
   3.12500000E-02  0.531250000       1.43273617E-04   6.67044967E-02   1.54028879E-03
   9.37500000E-02  0.531250000      -1.91039487E-03  0.114522070       1.10336533E-03
  0.156250000      0.531250000      -7.07392115E-03  0.128078789      -2.14442953E-05
  0.218750000      0.531250000      -1.26299066E-02  0.129520848      -1.75129075E-03
  0.281250000      0.531250000      -1.72430128E-02  0.124481544      -4.00499860E-03
  0.343750000      0.531250000      -2.08383705E-02  0.113732219      -6.63705822E-03
  0.406250000      0.531250000      -2.37428062E-02   9.71619710E-02  -9.41676088E-03
  0.468750000      0.531250000      -2.64490265E-02   7.46104196E-02  -1.20290900E-02
  0.531250000      0.531250000      -2.96251662E-02   4.61035483E-02  -1.40989870E-02
  0.593750000      0.531250000      -3.41237970E-02   1.19545748E-02  -1.52423978E-02
  0.656250000      0.531250000      -4.03625742E-02  -2.73473300E-02  -1.53544657E-02
  0.718750000      0.531250000      -4.86612245E-02  -7.09333867E-02  -1.42316492E-02
  0.781250000      0.531250000      -5.74471951E-02 -0.124791473      -1.17624719E-02
  0.843750000      0.531250000      -6.05809614E-02 -0.190790564      -7.97881559E-03
  0.906250000      0.531250000      -4.93579693E-02 -0.252514213      -3.79271340E-03
  0.968750000      0.531250000      -1.95156913E-02 -0.240597993      -1.65267766E-03
   3.12500000E-02  0.593750000       1.49823958E-03   6.50604591E-02   1.43084777E-04
   9.37500000E-02  0.593750000       2.96801468E-03  0.116747558      -1.84512624E-04
  0.156250000      0.593750000       2.25707516E-03  0.131729826      -1.12391589E-03
  0.218750000      0.593750000       1.24137802E-03  0.132448539      -2.68706051E-03
  0.281250000      0.593750000       1.15648704E-03  0.126265526      -4.79844911E-03
  0.343750000      0.593750000       2.04955041E-03  0.114670783      -7.32918922E-03
  0.406250000      0.593750000       3.42193944E-03   9.77806970E-02  -1.00591443E-02
  0.468750000      0.593750000       4.59787250E-03   7.55498260E-02  -1.26776472E-02
  0.531250000      0.593750000       4.75244224E-03   4.82140481E-02  -1.48126455E-02
  0.593750000      0.593750000       2.56273989E-03   1.65623501E-02  -1.60781536E-02
  0.656250000      0.593750000      -3.98855470E-03  -1.91389713E-02  -1.62937380E-02
  0.718750000      0.593750000      -1.57690793E-02  -5.90447411E-02  -1.55732241E-02
  0.781250000      0.593750000      -3.11101228E-02 -0.112541482      -1.35951834E-02
  0.843750000      0.593750000      -4.33006287E-02 -0.187710464      -1.01152863E-02
  0.906250000      0.593750000      -4.11242843E-02 -0.268991113      -5.65535575E-03
  0.968750000      0.593750000      -1.74866263E-02 -0.277601182      -2.98761507E-03
   3.12500000E-02  0.656250000       2.18829652E-03   6.13712892E-02  -9.07580717E-04
   9.37500000E-02  0.656250000       5.93142305E-03  0.115220681      -1.10554323E-03
  0.156250000      0.656250000       8.95601604E-03  0.130944341      -1.76110957E-03
  0.218750000      0.656250000       1.24565884E-02  0.130755574      -3.01499665E-03
  0.281250000      0.656250000       1.70954466E-02  0.123417132      -4.87159379E-03
  0.343750000      0.656250000       2.25404762E-02  0.111200042      -7.21395388E-03
  0.406250000      0.656250000       2.79708132E-02   9.44726020E-02  -9.80938412E-03
  0.468750000      0.656250000       3.23856734E-02   7.32935593E-02  -1.23243118E-02
  0.531250000      0.656250000       3.46637107E-02   4.80645597E-02  -1.43676391E-02
  0.593750000      0.656250000       3.36235017E-02   1.99695919E-02  -1.55757312E-02
  0.656250000      0.656250000       2.79866084E-02  -1.03350487E-02  -1.57274213E-02
  0.718750000      0.656250000       1.65351890E-02  -4.46015075E-02  -1.52077870E-02
  0.781250000      0.656250000      -2.38886196E-03  -9.27092284E-02  -1.38631165E-02
  0.843750000      0.656250000      -2.28236355E-02 -0.174914569      -1.06526967E-02
  0.906250000      0.656250000      -3.03830281E-02 -0.276405901      -5.66872396E-03
  0.968750000      0.656250000      -1.45602189E-02 -0.309650719      -2.12554401E-03
   3.12500000E-02  0.718750000       1.75776077E-03   5.74213639E-02  -1.68063282E-03
   9.37500000E-02  0.718750000       6.04047161E-03  0.111138664      -1.67266547E-03
  0.156250000      0.718750000       1.21241631E-02  0.125915781      -1.89523655E-03
  0.218750000      0.718750000       2.02513430E-02  0.124159090      -2.71741836E-03
  0.281250000      0.718750000       2.99138911E-02  0.115721032      -4.25398722E-03
  0.343750000      0.718750000       4.00199033E-02  0.103360310      -6.38786424E-03
  0.406250000      0.718750000       4.93218973E-02   8.76004919E-02  -8.85041431E-03
  0.468750000      0.718750000       5.65172508E-02   6.85790479E-02  -1.12696579E-02
  0.531250000      0.718750000       6.02742769E-02   4.67683524E-02  -1.32299298E-02
  0.593750000      0.718750000       5.93742952E-02   2.32287087E-02  -1.43669965E-02
  0.656250000      0.718750000       5.28681651E-02  -1.43189228E-03  -1.44815072E-02
  0.718750000      0.718750000       4.07584459E-02  -2.99301352E-02  -1.38275111E-02
  0.781250000      0.718750000       2.38089450E-02  -7.15012997E-02  -1.22591276E-02
  0.843750000      0.718750000       1.46641117E-03 -0.153346509      -9.41088144E-03
  0.906250000      0.718750000      -1.57954227E-02 -0.273160666      -3.11127538E-03
  0.968750000      0.718750000      -1.01544466E-02 -0.334370852       2.36103451E-03
   3.12500000E-02  0.781250000      -9.76470590E-04   5.66343516E-02  -2.34790728E-03
   9.37500000E-02  0.781250000       1.50747341E-03  0.105146989      -1.86128390E-03
  0.156250000      0.781250000       1.09046623E-02  0.116417140      -1.48680585E-03
  0.218750000      0.781250000       2.43553333E-02  0.112076625      -1.77606544E-03
  0.281250000      0.781250000       3.97006869E-02  0.102798723      -2.99082953E-03
  0.343750000      0.781250000       5.48067689E-02   9.10803974E-02  -4.97452915E-03
  0.406250000      0.781250000       6.80722445E-02   7.73287117E-02  -7.38761155E-03
  0.468750000      0.781250000       7.80936182E-02   6.16537556E-02  -9.80238151E-03
  0.531250000      0.781250000       8.35922509E-02   4.44589183E-02  -1.17715970E-02
  0.593750000      0.781250000       8.35606009E-02   2.64892038E-02  -1.29169300E-02
  0.656250000      0.781250000       7.74430931E-02   7.94755016E-03  -1.30188698E-02
  0.718750000      0.781250000       6.54448569E-02  -1.51937865E-02  -1.22303749E-02
  0.781250000      0.781250000       4.87367846E-02  -5.25835380E-02  -1.00958124E-02
  0.843750000      0.781250000       2.87458729E-02 -0.129940510      -5.36801666E-03
  0.906250000      0.781250000       6.55072927E-03 -0.257124394       3.36343655E-03
  0.968750000      0.781250000      -2.49053724E-03 -0.347025096       1.31254476E-02
   3.12500000E-02  0.843750000      -6.52855355E-03   6.41297996E-02  -3.09726829E-03
   9.37500000E-02  0.843750000      -8.48824345E-03   9.71072391E-02  -1.77419197E-03
  0.156250000      0.843750000       5.88161591E-03  0.100672804      -5.13048260E-04
  0.218750000      0.843750000       2.70045232E-02   9.32375044E-02  -2.14932166E-04
  0.281250000      0.843750000       4.93631475E-02   8.39308202E-02  -1.19828642E-03
  0.343750000      0.843750000       7.02605471E-02   7.39490241E-02  -3.16437962E-03
  0.406250000      0.843750000       8.81784707E-02   6.32875636E-02  -5.66266757E-03
  0.468750000      0.843750000      0.101964183       5.19033968E-02  -8.19982681E-03
  0.531250000      0.843750000      0.110696904       3.99953909E-02  -1.02954265E-02
  0.593750000      0.843750000      0.113826528       2.78709196E-02  -1.15501834E-02
  0.656250000      0.843750000      0.111370772       1.51511095E-02  -1.17104892E-02
  0.718750000      0.843750000      0.103204809      -2.23164028E-03  -1.06360437E-02
  0.781250000      0.843750000       9.05224830E-02  -3.61659192E-02  -7.52520142E-03
  0.843750000      0.843750000       7.24978298E-02 -0.108360581       8.86928407E-04
  0.906250000      0.843750000       4.32893708E-02 -0.227322489       1.72847584E-02
  0.968750000      0.843750000       1.25040412E-02 -0.337022722       3.59231867E-02
   3.12500000E-02  0.906250000      -1.14927413E-02   8.21393579E-02  -5.29218605E-03
   9.37500000E-02  0.906250000      -1.22739263E-02   8.18148702E-02  -1.48948480E-03
  0.156250000      0.906250000       1.52194118E-02   7.40824044E-02   1.08910003E-03
  0.218750000      0.906250000       4.86561581E-02   6.52556568E-02   1.90931512E-03
  0.281250000      0.906250000       8.06400552E-02   5.75633124E-02   9.66487336E-04
  0.343750000      0.906250000      0.109517880       5.05414382E-02  -1.14926521E-03
  0.406250000      0.906250000      0.134534359       4.37681675E-02  -3.86015093E-03
  0.468750000      0.906250000      0.155148134       3.70364003E-02  -6.61852583E-03
  0.531250000      0.906250000      0.170968220       3.03253178E-02  -8.91918130E-03
  0.593750000      0.906250000      0.181812167       2.35819444E-02  -1.03303147E-02
  0.656250000      0.906250000      0.187780589       1.59361195E-02  -1.04877315E-02
  0.718750000      0.906250000      0.189894825       3.03206034E-03  -8.95651337E-03
  0.781250000      0.906250000      0.187162906      -2.60291044E-02  -3.39316530E-03
  0.843750000      0.906250000      0.169409201      -8.27388093E-02   1.19022634E-02
  0.906250000      0.906250000      0.120550513     -0.174901992       4.17474583E-02
  0.968750000      0.906250000       4.31988873E-02 -0.281329811       7.98746571E-02
   3.12500000E-02  0.968750000       4.68064100E-02   4.68132943E-02  -1.23984925E-02
   9.37500000E-02  0.968750000      0.129158512       3.55486460E-02   3.96765507E-04
  0.156250000      0.968750000      0.193352669       2.86485422E-02   4.39011166E-03
  0.218750000      0.968750000      0.246299863       2.42990740E-02   4.96642245E-03
  0.281250000      0.968750000      0.291714668       2.11165491E-02   3.62076191E-03
  0.343750000      0.968750000      0.331327289       1.84965916E-02   1.13238825E-03
  0.406250000      0.968750000      0.365976214       1.61515232E-02  -1.89891970E-03
  0.468750000      0.968750000      0.396076977       1.39469840E-02  -4.93082963E-03
  0.531250000      0.968750000      0.421854705       1.18277054E-02  -7.46292854E-03
  0.593750000      0.968750000      0.443392456       9.70751420E-03  -9.03018191E-03
  0.656250000      0.968750000      0.460169256       7.06928037E-03  -9.00896266E-03
  0.718750000      0.968750000      0.468593836       1.35652488E-03  -5.46066929E-03
  0.781250000      0.968750000      0.458453298      -1.14927283E-02   5.31844329E-03
  0.843750000      0.968750000      0.412932128      -3.40192392E-02   2.86113881E-02
  0.906250000      0.968750000      0.308523685      -7.03780875E-02   7.18213320E-02
  0.968750000      0.968750000      0.119069837     -0.119067729      0.135636762    
