 VARIABLES="X","Y","U","V","P"
 ZONE F=POINT, I=          16 , J=          16
   3.12500000E-02   3.12500000E-02   1.99685222E-04  -2.04486743E-04   6.57037832E-03
   9.37500000E-02   3.12500000E-02  -5.49322867E-04   9.42996237E-04   6.43562060E-03
  0.156250000       3.12500000E-02  -3.48926871E-03   1.98534993E-03   6.23475155E-03
  0.218750000       3.12500000E-02  -8.53220001E-03   3.04621016E-03   6.00420684E-03
  0.281250000       3.12500000E-02  -1.57034788E-02   4.11572075E-03   5.78649901E-03
  0.343750000       3.12500000E-02  -2.47698352E-02   4.94502857E-03   5.64311352E-03
  0.406250000       3.12500000E-02  -3.49715725E-02   5.25484420E-03   5.65611385E-03
  0.468750000       3.12500000E-02  -4.50808778E-02   4.85460320E-03   5.92941605E-03
  0.531250000       3.12500000E-02  -5.35964072E-02   3.66089912E-03   6.57883147E-03
  0.593750000       3.12500000E-02  -5.89331090E-02   1.67422323E-03   7.69988215E-03
  0.656250000       3.12500000E-02  -5.95465899E-02  -1.06132857E-03   9.31514241E-03
  0.718750000       3.12500000E-02  -5.38786128E-02  -4.60371887E-03   1.11036487E-02
  0.781250000       3.12500000E-02  -4.12343815E-02  -8.03423673E-03   1.26288887E-02
  0.843750000       3.12500000E-02  -2.34301612E-02  -9.76266526E-03   1.33771291E-02
  0.906250000       3.12500000E-02  -6.36572065E-03  -7.29988981E-03   1.32072456E-02
  0.968750000       3.12500000E-02   4.66386991E-04   4.63247707E-04   1.27013978E-02
   3.12500000E-02   9.37500000E-02  -1.96913560E-03   1.55336445E-03   6.70700520E-03
   9.37500000E-02   9.37500000E-02  -8.35369248E-03   6.29340764E-03   6.56124903E-03
  0.156250000       9.37500000E-02  -1.88290775E-02   1.00242840E-02   6.37608860E-03
  0.218750000       9.37500000E-02  -3.21547836E-02   1.33542372E-02   6.14374178E-03
  0.281250000       9.37500000E-02  -4.73609567E-02   1.61707141E-02   5.88731933E-03
  0.343750000       9.37500000E-02  -6.32501394E-02   1.78398211E-02   5.66209620E-03
  0.406250000       9.37500000E-02  -7.84087330E-02   1.77214611E-02   5.55563439E-03
  0.468750000       9.37500000E-02  -9.12976712E-02   1.53900199E-02   5.68681024E-03
  0.531250000       9.37500000E-02 -0.100321807       1.06678475E-02   6.19176775E-03
  0.593750000       9.37500000E-02 -0.103901014       3.58435023E-03   7.18497392E-03
  0.656250000       9.37500000E-02 -0.100549489      -5.70791727E-03   8.64596292E-03
  0.718750000       9.37500000E-02  -8.94244164E-02  -1.67456660E-02   1.03568286E-02
  0.781250000       9.37500000E-02  -7.08310902E-02  -2.71213241E-02   1.18832225E-02
  0.843750000       9.37500000E-02  -4.65721041E-02  -3.27310562E-02   1.27105126E-02
  0.906250000       9.37500000E-02  -2.11178362E-02  -2.68541276E-02   1.26638757E-02
  0.968750000       9.37500000E-02  -4.43430524E-03  -3.51320067E-03   1.22305118E-02
   3.12500000E-02  0.156250000      -4.23569651E-03   7.74772698E-03   6.82774186E-03
   9.37500000E-02  0.156250000      -1.54954251E-02   1.77184381E-02   6.62915688E-03
  0.156250000      0.156250000      -3.07812318E-02   2.43353806E-02   6.39313692E-03
  0.218750000      0.156250000      -4.79512624E-02   2.95226369E-02   6.06752792E-03
  0.281250000      0.156250000      -6.58494830E-02   3.31003182E-02   5.65544982E-03
  0.343750000      0.156250000      -8.32797289E-02   3.42312753E-02   5.20933326E-03
  0.406250000      0.156250000      -9.89428535E-02   3.21577266E-02   4.83335368E-03
  0.468750000      0.156250000     -0.111496113       2.64028497E-02   4.67833597E-03
  0.531250000      0.156250000     -0.119615927       1.68049000E-02   4.91622742E-03
  0.593750000      0.156250000     -0.122084871       3.50113166E-03   5.68569079E-03
  0.656250000      0.156250000     -0.117935792      -1.31211486E-02   7.00331107E-03
  0.718750000      0.156250000     -0.106609978      -3.17804217E-02   8.74092709E-03
  0.781250000      0.156250000      -8.80259424E-02  -4.92605269E-02   1.04669500E-02
  0.843750000      0.156250000      -6.29296228E-02  -5.99463992E-02   1.16277263E-02
  0.906250000      0.156250000      -3.40032838E-02  -5.40274642E-02   1.18775312E-02
  0.968750000      0.156250000      -9.54320747E-03  -1.74997374E-02   1.15109384E-02
   3.12500000E-02  0.218750000      -5.45471208E-03   1.74342468E-02   6.71696989E-03
   9.37500000E-02  0.218750000      -1.91278197E-02   3.29510346E-02   6.45602494E-03
  0.156250000      0.218750000      -3.63922305E-02   4.16372940E-02   6.11208007E-03
  0.218750000      0.218750000      -5.47202826E-02   4.77113053E-02   5.60816983E-03
  0.281250000      0.218750000      -7.30557442E-02   5.11450879E-02   4.93948488E-03
  0.343750000      0.218750000      -9.04334784E-02   5.09986877E-02   4.16495325E-03
  0.406250000      0.218750000     -0.105820954       4.64470237E-02   3.41177220E-03
  0.468750000      0.218750000     -0.118140757       3.69934887E-02   2.86634616E-03
  0.531250000      0.218750000     -0.126314968       2.25159284E-02   2.73924437E-03
  0.593750000      0.218750000     -0.129340544       3.29141575E-03   3.19912564E-03
  0.656250000      0.218750000     -0.126414612      -1.99823864E-02   4.33814991E-03
  0.718750000      0.218750000     -0.116848916      -4.58087288E-02   6.12405315E-03
  0.781250000      0.218750000     -0.100012012      -7.06522912E-02   8.16692598E-03
  0.843750000      0.218750000      -7.56430551E-02  -8.80195126E-02   9.86842625E-03
  0.906250000      0.218750000      -4.48360853E-02  -8.56883973E-02   1.06520830E-02
  0.968750000      0.218750000      -1.40464697E-02  -4.10936698E-02   1.04710888E-02
   3.12500000E-02  0.281250000      -5.52562112E-03   2.84159146E-02   6.21351460E-03
   9.37500000E-02  0.281250000      -1.92993470E-02   4.94130552E-02   5.89928497E-03
  0.156250000      0.281250000      -3.64127941E-02   5.95472269E-02   5.42161288E-03
  0.218750000      0.281250000      -5.41842282E-02   6.59005344E-02   4.69871005E-03
  0.281250000      0.281250000      -7.16881603E-02   6.87987506E-02   3.72556364E-03
  0.343750000      0.281250000      -8.82180557E-02   6.72579780E-02   2.56887823E-03
  0.406250000      0.281250000     -0.103017576       6.03811890E-02   1.37570465E-03
  0.468750000      0.281250000     -0.115243226       4.76127192E-02   3.64514504E-04
  0.531250000      0.281250000     -0.123970971       2.88084038E-02  -2.13360268E-04
  0.593750000      0.281250000     -0.128258497       4.31973301E-03  -1.46909922E-04
  0.656250000      0.281250000     -0.127292275      -2.48992685E-02   7.29119638E-04
  0.718750000      0.281250000     -0.120287567      -5.74617796E-02   2.52307486E-03
  0.781250000      0.281250000     -0.106225275      -8.99008289E-02   4.91065392E-03
  0.843750000      0.281250000      -8.38904008E-02 -0.115476459       7.26852007E-03
  0.906250000      0.281250000      -5.27975708E-02 -0.120127991       8.77491757E-03
  0.968750000      0.281250000      -1.75489318E-02  -7.26888925E-02   8.91536381E-03
   3.12500000E-02  0.343750000      -4.70816717E-03   3.86528410E-02   5.28929150E-03
   9.37500000E-02  0.343750000      -1.68243106E-02   6.50682896E-02   4.94012656E-03
  0.156250000      0.343750000      -3.21944356E-02   7.63760209E-02   4.33402415E-03
  0.218750000      0.343750000      -4.80897501E-02   8.27424452E-02   3.39615485E-03
  0.281250000      0.343750000      -6.36809021E-02   8.50575864E-02   2.12154887E-03
  0.343750000      0.343750000      -7.85046816E-02   8.23590457E-02   5.78707899E-04
  0.406250000      0.343750000      -9.20819640E-02   7.36640990E-02  -1.07440667E-03
  0.468750000      0.343750000     -0.103809796       5.82922883E-02  -2.59332359E-03
  0.531250000      0.343750000     -0.112917528       3.59751359E-02  -3.68170533E-03
  0.593750000      0.343750000     -0.118508041       7.03808665E-03  -4.06769197E-03
  0.656250000      0.343750000     -0.119745642      -2.73435414E-02  -3.54407961E-03
  0.718750000      0.343750000     -0.115863957      -6.59042299E-02  -1.83172466E-03
  0.781250000      0.343750000     -0.105610788     -0.105779231       8.28535645E-04
  0.843750000      0.343750000      -8.68224800E-02 -0.140726790       3.83066107E-03
  0.906250000      0.343750000      -5.73427230E-02 -0.155449122       6.14253944E-03
  0.968750000      0.343750000      -1.98591314E-02 -0.110095710       6.71577826E-03
   3.12500000E-02  0.406250000      -3.34124267E-03   4.67047840E-02   4.04272601E-03
   9.37500000E-02  0.406250000      -1.26522640E-02   7.84471110E-02   3.67922918E-03
  0.156250000      0.406250000      -2.51406580E-02   9.08593833E-02   2.97258887E-03
  0.218750000      0.406250000      -3.81040908E-02   9.71238911E-02   1.85940298E-03
  0.281250000      0.406250000      -5.07529825E-02   9.89230722E-02   3.31139105E-04
  0.343750000      0.406250000      -6.28421903E-02   9.54135358E-02  -1.55100063E-03
  0.406250000      0.406250000      -7.41940141E-02   8.55465606E-02  -3.62996617E-03
  0.468750000      0.406250000      -8.45296681E-02   6.84829503E-02  -5.64495707E-03
  0.531250000      0.406250000      -9.33592916E-02   4.37332243E-02  -7.25417491E-03
  0.593750000      0.406250000      -9.99283493E-02   1.14469938E-02  -8.10669828E-03
  0.656250000      0.406250000     -0.103368513      -2.70699039E-02  -7.98892975E-03
  0.718750000      0.406250000     -0.103059053      -7.03670382E-02  -6.46981550E-03
  0.781250000      0.406250000      -9.77030993E-02 -0.116931483      -3.69648659E-03
  0.843750000      0.406250000      -8.41313079E-02 -0.161943197      -1.94269174E-04
  0.906250000      0.406250000      -5.83375767E-02 -0.189510122       2.88171484E-03
  0.968750000      0.406250000      -2.09504589E-02 -0.150905728       3.95226665E-03
   3.12500000E-02  0.468750000      -1.77847198E-03   5.18258177E-02   2.63842545E-03
   9.37500000E-02  0.468750000      -7.75484834E-03   8.86168182E-02   2.28400249E-03
  0.156250000      0.468750000      -1.66821405E-02  0.102110475       1.52461510E-03
  0.218750000      0.468750000      -2.59808674E-02  0.108141817       3.07094568E-04
  0.281250000      0.468750000      -3.48368622E-02  0.109417506      -1.38478121E-03
  0.343750000      0.468750000      -4.31690961E-02  0.105348125      -3.50528373E-03
  0.406250000      0.468750000      -5.10917716E-02   9.48950723E-02  -5.91008738E-03
  0.468750000      0.468750000      -5.87319806E-02   7.71209300E-02  -8.33669119E-03
  0.531250000      0.468750000      -6.61210567E-02   5.13267890E-02  -1.04106702E-02
  0.593750000      0.468750000      -7.29949325E-02   1.73108727E-02  -1.16954669E-02
  0.656250000      0.468750000      -7.84378648E-02  -2.40446087E-02  -1.19549325E-02
  0.718750000      0.468750000      -8.20247903E-02  -7.01151639E-02  -1.07319737E-02
  0.781250000      0.468750000      -8.26464593E-02 -0.121919550      -8.06085672E-03
  0.843750000      0.468750000      -7.59920329E-02 -0.177189142      -4.30633361E-03
  0.906250000      0.468750000      -5.59555031E-02 -0.220102191      -6.14260149E-04
  0.968750000      0.468750000      -2.09015794E-02 -0.192761034       9.66402178E-04
   3.12500000E-02  0.531250000      -3.73271323E-04   5.39767966E-02   1.24035694E-03
   9.37500000E-02  0.531250000      -3.09210131E-03   9.51639488E-02   9.28041874E-04
  0.156250000      0.531250000      -8.24248046E-03  0.109647766       1.84454140E-04
  0.218750000      0.531250000      -1.35444747E-02  0.115212008      -1.03788963E-03
  0.281250000      0.531250000      -1.81226879E-02  0.115788922      -2.76697171E-03
  0.343750000      0.531250000      -2.19965391E-02  0.111190572      -4.97685652E-03
  0.406250000      0.531250000      -2.54923739E-02  0.100480318      -7.54307956E-03
  0.468750000      0.531250000      -2.90464610E-02   8.27414617E-02  -1.02158543E-02
  0.531250000      0.531250000      -3.31921242E-02   5.72540686E-02  -1.26164351E-02
  0.593750000      0.531250000      -3.85440402E-02   2.36283634E-02  -1.42696714E-02
  0.656250000      0.531250000      -4.54968810E-02  -1.79561656E-02  -1.47266015E-02
  0.718750000      0.531250000      -5.36114909E-02  -6.44966066E-02  -1.39145143E-02
  0.781250000      0.531250000      -6.11502863E-02 -0.119369119      -1.15728490E-02
  0.843750000      0.531250000      -6.29458725E-02 -0.184600383      -7.85650313E-03
  0.906250000      0.531250000      -5.05563244E-02 -0.245124996      -3.74134351E-03
  0.968750000      0.531250000      -1.98454447E-02 -0.233514249      -1.66227226E-03
   3.12500000E-02  0.593750000       5.50416997E-04   5.37970662E-02  -3.04343012E-05
   9.37500000E-02  0.593750000       4.43215482E-04   9.81702805E-02  -2.56325671E-04
  0.156250000      0.593750000      -1.14394620E-03  0.113385983      -8.94303492E-04
  0.218750000      0.593750000      -2.48639239E-03  0.118126132      -2.00144015E-03
  0.281250000      0.593750000      -2.70731701E-03  0.117682613      -3.62182036E-03
  0.343750000      0.593750000      -1.92795624E-03  0.112401381      -5.74961537E-03
  0.406250000      0.593750000      -6.55035255E-04  0.101504147      -8.27880297E-03
  0.468750000      0.593750000       4.73198947E-04   8.41574073E-02  -1.09751076E-02
  0.531250000      0.593750000       6.63712155E-04   5.98078445E-02  -1.34737119E-02
  0.593750000      0.593750000      -1.42096262E-03   2.85300352E-02  -1.53040849E-02
  0.656250000      0.593750000      -8.29072855E-03  -9.00140405E-03  -1.59780122E-02
  0.718750000      0.593750000      -2.00753249E-02  -5.35195097E-02  -1.55449156E-02
  0.781250000      0.593750000      -3.45372856E-02 -0.108329296      -1.36757661E-02
  0.843750000      0.593750000      -4.57311869E-02 -0.182644874      -1.02258772E-02
  0.906250000      0.593750000      -4.25000638E-02 -0.262706161      -5.79635473E-03
  0.968750000      0.593750000      -1.78948399E-02 -0.271263301      -3.16695380E-03
   3.12500000E-02  0.656250000       8.51203222E-04   5.23924306E-02  -1.08292676E-03
   9.37500000E-02  0.656250000       2.19092914E-03   9.83410925E-02  -1.21661869E-03
  0.156250000      0.656250000       3.49042634E-03  0.113508150      -1.63578102E-03
  0.218750000      0.656250000       5.98380575E-03  0.116860799      -2.49487418E-03
  0.281250000      0.656250000       1.01421494E-02  0.115019821      -3.88462096E-03
  0.343750000      0.656250000       1.55208716E-02  0.108916953      -5.81408758E-03
  0.406250000      0.656250000       2.12899484E-02   9.79582518E-02  -8.17884505E-03
  0.468750000      0.656250000       2.64623426E-02   8.14149529E-02  -1.07357502E-02
  0.531250000      0.656250000       2.98846662E-02   5.89501411E-02  -1.31083820E-02
  0.593750000      0.656250000       3.01787518E-02   3.11951302E-02  -1.48427580E-02
  0.656250000      0.656250000       2.58284397E-02  -4.08633729E-04  -1.55369397E-02
  0.718750000      0.656250000       1.45890899E-02  -3.90434749E-02  -1.53777171E-02
  0.781250000      0.656250000      -4.70742164E-03  -8.90224874E-02  -1.41540552E-02
  0.843750000      0.656250000      -2.49169804E-02 -0.170538783      -1.10028796E-02
  0.906250000      0.656250000      -3.17668542E-02 -0.271195859      -6.06855936E-03
  0.968750000      0.656250000      -1.49962520E-02 -0.304165483      -2.57310551E-03
   3.12500000E-02  0.718750000      -1.59666888E-05   5.15553281E-02  -1.96743151E-03
   9.37500000E-02  0.718750000       1.17947441E-03   9.66405347E-02  -1.90258108E-03
  0.156250000      0.718750000       4.85345628E-03  0.110233977      -1.99586200E-03
  0.218750000      0.718750000       1.11753456E-02  0.111322105      -2.49628467E-03
  0.281250000      0.718750000       1.98255852E-02  0.107757062      -3.57960397E-03
  0.343750000      0.718750000       2.97352355E-02  0.100899652      -5.26720379E-03
  0.406250000      0.718750000       3.96517962E-02   9.02977735E-02  -7.43943546E-03
  0.468750000      0.718750000       4.82221171E-02   7.53393620E-02  -9.83032677E-03
  0.531250000      0.718750000       5.39595149E-02   5.58725372E-02  -1.20466128E-02
  0.593750000      0.718750000       5.53027466E-02   3.26459371E-02  -1.36401905E-02
  0.656250000      0.718750000       5.09172417E-02   6.89524412E-03  -1.42454896E-02
  0.718750000      0.718750000       4.00442779E-02  -2.42110621E-02  -1.39555484E-02
  0.781250000      0.718750000       2.28588060E-02  -6.73556998E-02  -1.26628950E-02
  0.843750000      0.718750000      -1.60974916E-04 -0.148968264      -9.99499485E-03
  0.906250000      0.718750000      -1.71695091E-02 -0.268914998      -3.80781502E-03
  0.968750000      0.718750000      -1.06172971E-02 -0.329792559       1.55287329E-03
   3.12500000E-02  0.781250000      -2.64581852E-03   5.42105809E-02  -2.76417821E-03
   9.37500000E-02  0.781250000      -3.81135917E-03   9.39434096E-02  -2.35727732E-03
  0.156250000      0.781250000       2.10164906E-03  0.103336647      -1.94694044E-03
  0.218750000      0.781250000       1.28937904E-02  0.101105332      -1.98835763E-03
  0.281250000      0.781250000       2.65200119E-02   9.57026631E-02  -2.73842039E-03
  0.343750000      0.781250000       4.11123186E-02   8.84586722E-02  -4.21022391E-03
  0.406250000      0.781250000       5.50504401E-02   7.88895786E-02  -6.24354742E-03
  0.468750000      0.781250000       6.67755082E-02   6.64556846E-02  -8.53555370E-03
  0.531250000      0.781250000       7.47062415E-02   5.10907732E-02  -1.06714312E-02
  0.593750000      0.781250000       7.73975626E-02   3.33979167E-02  -1.22024994E-02
  0.656250000      0.781250000       7.39099085E-02   1.40281189E-02  -1.27767809E-02
  0.718750000      0.781250000       6.35222197E-02  -1.00833783E-02  -1.22975670E-02
  0.781250000      0.781250000       4.70394865E-02  -4.78311554E-02  -1.05501469E-02
  0.843750000      0.781250000       2.70129144E-02 -0.125460237      -6.20332919E-03
  0.906250000      0.781250000       5.17270807E-03 -0.253591180       2.19264580E-03
  0.968750000      0.781250000      -3.04832961E-03 -0.343475044       1.18233934E-02
   3.12500000E-02  0.843750000      -7.68295117E-03   6.45256266E-02  -3.78407771E-03
   9.37500000E-02  0.843750000      -1.31313950E-02   9.02231485E-02  -2.65096896E-03
  0.156250000      0.843750000      -3.40349064E-03   9.14060026E-02  -1.48305495E-03
  0.218750000      0.843750000       1.38163660E-02   8.50248933E-02  -9.93279275E-04
  0.281250000      0.843750000       3.37003171E-02   7.82820955E-02  -1.44684175E-03
  0.343750000      0.843750000       5.36106825E-02   7.13831484E-02  -2.79710535E-03
  0.406250000      0.843750000       7.20034540E-02   6.36383668E-02  -4.80247010E-03
  0.468750000      0.843750000       8.74654204E-02   5.45213223E-02  -7.11118802E-03
  0.531250000      0.843750000       9.86361653E-02   4.39240560E-02  -9.28222947E-03
  0.593750000      0.843750000      0.104398891       3.21120769E-02  -1.08514540E-02
  0.656250000      0.843750000      0.104165807       1.90389678E-02  -1.14330007E-02
  0.718750000      0.843750000       9.76406112E-02   1.80539605E-03  -1.07632848E-02
  0.781250000      0.843750000       8.62985998E-02  -3.19299437E-02  -8.20294209E-03
  0.843750000      0.843750000       6.95821270E-02 -0.104652368      -3.55735247E-04
  0.906250000      0.843750000       4.15957123E-02 -0.224596232       1.55803664E-02
  0.968750000      0.843750000       1.19309090E-02 -0.334609210       3.39749306E-02
   3.12500000E-02  0.906250000      -1.15411272E-02   8.37395787E-02  -6.39935955E-03
   9.37500000E-02  0.906250000      -1.44274347E-02   7.93332309E-02  -2.87336437E-03
  0.156250000      0.906250000       8.52324441E-03   6.96198642E-02  -5.19888243E-04
  0.218750000      0.906250000       3.74198742E-02   6.07112497E-02   5.22226677E-04
  0.281250000      0.906250000       6.60742372E-02   5.40779531E-02   2.05082935E-04
  0.343750000      0.906250000       9.32149813E-02   4.85457554E-02  -1.16916629E-03
  0.406250000      0.906250000      0.118020743       4.32795212E-02  -3.26721463E-03
  0.468750000      0.906250000      0.139655858       3.77813950E-02  -5.69428457E-03
  0.531250000      0.906250000      0.157289594       3.18579003E-02  -7.98820611E-03
  0.593750000      0.906250000      0.170254409       2.54519656E-02  -9.66092385E-03
  0.656250000      0.906250000      0.178265870       1.79217458E-02  -1.02431746E-02
  0.718750000      0.906250000      0.182281733       5.41751366E-03  -9.23665427E-03
  0.781250000      0.906250000      0.181595922      -2.35404074E-02  -4.36515408E-03
  0.843750000      0.906250000      0.165919632      -8.06718320E-02   1.02435648E-02
  0.906250000      0.906250000      0.118717179     -0.173405334       3.95372584E-02
  0.968750000      0.906250000       4.26266156E-02 -0.280062318       7.73304552E-02
   3.12500000E-02  0.968750000       4.76223864E-02   4.76390347E-02  -1.36585999E-02
   9.37500000E-02  0.968750000      0.130581737       3.53397727E-02  -1.33692869E-03
  0.156250000      0.968750000      0.193595245       2.76657306E-02   2.32615531E-03
  0.218750000      0.968750000      0.244342864       2.30597313E-02   3.14558600E-03
  0.281250000      0.968750000      0.287434250       2.00145710E-02   2.48169899E-03
  0.343750000      0.968750000      0.325184345       1.77299194E-02   8.09835386E-04
  0.406250000      0.968750000      0.358689576       1.57800373E-02  -1.52923167E-03
  0.468750000      0.968750000      0.388389975       1.39318053E-02  -4.15364606E-03
  0.531250000      0.968750000      0.414378285       1.20701669E-02  -6.61182031E-03
  0.593750000      0.968750000      0.436538577       1.01026827E-02  -8.39559548E-03
  0.656250000      0.968750000      0.454209030       7.57906400E-03  -8.81163403E-03
  0.718750000      0.968750000      0.463864028       2.08006101E-03  -5.93788968E-03
  0.781250000      0.968750000      0.455138206      -1.08029097E-02   4.22007404E-03
  0.843750000      0.968750000      0.410859585      -3.34679671E-02   2.68243179E-02
  0.906250000      0.968750000      0.307414949      -6.99716061E-02   6.94405586E-02
  0.968750000      0.968750000      0.118720762     -0.118719488      0.132841736    
