 VARIABLES="X","Y","U","V","P"
 ZONE F=POINT, I=          40 , J=          40
   1.25000002E-02   1.25000002E-02   5.15495049E-05  -5.18837551E-05   1.32645480E-02
   3.75000015E-02   1.25000002E-02   1.27721665E-04  -2.50666908E-05   1.31396241E-02
   6.25000000E-02   1.25000002E-02   1.01052014E-04   5.08631056E-05   1.28517002E-02
   8.75000060E-02   1.25000002E-02  -8.63359164E-05   1.35686394E-04   1.24759339E-02
  0.112500004       1.25000002E-02  -4.35336726E-04   2.12516927E-04   1.20774060E-02
  0.137500003       1.25000002E-02  -9.24085150E-04   2.75478291E-04   1.17035545E-02
  0.162500009       1.25000002E-02  -1.52381673E-03   3.23544955E-04   1.13861477E-02
  0.187500000       1.25000002E-02  -2.20570783E-03   3.57679499E-04   1.11452807E-02
  0.212500006       1.25000002E-02  -2.94350437E-03   3.79490200E-04   1.09930485E-02
  0.237500012       1.25000002E-02  -3.71417985E-03   3.90596106E-04   1.09364027E-02
  0.262499988       1.25000002E-02  -4.49767150E-03   3.92341259E-04   1.09791532E-02
  0.287499994       1.25000002E-02  -5.27623715E-03   3.85701831E-04   1.11232297E-02
  0.312500000       1.25000002E-02  -6.03372417E-03   3.71289731E-04   1.13693355E-02
  0.337500006       1.25000002E-02  -6.75490825E-03   3.49422422E-04   1.17171519E-02
  0.362499982       1.25000002E-02  -7.42499903E-03   3.20216845E-04   1.21652000E-02
  0.387499988       1.25000002E-02  -8.02934729E-03   2.83695583E-04   1.27104875E-02
  0.412499994       1.25000002E-02  -8.55336152E-03   2.39890767E-04   1.33480392E-02
  0.437500000       1.25000002E-02  -8.98261461E-03   1.88939535E-04   1.40703805E-02
  0.462500006       1.25000002E-02  -9.30313952E-03   1.31161170E-04   1.48670170E-02
  0.487499982       1.25000002E-02  -9.50186327E-03   6.71327871E-05   1.57239921E-02
  0.512499988       1.25000002E-02  -9.56724770E-03  -2.18675041E-06   1.66234449E-02
  0.537500024       1.25000002E-02  -9.49049089E-03  -7.50214240E-05   1.75418258E-02
  0.562500000       1.25000002E-02  -9.26650874E-03  -1.49426007E-04   1.84530765E-02
  0.587499976       1.25000002E-02  -8.89446959E-03  -2.23093011E-04   1.93303246E-02
  0.612500012       1.25000002E-02  -8.37861467E-03  -2.93254736E-04   2.01454889E-02
  0.637499988       1.25000002E-02  -7.72906141E-03  -3.56800912E-04   2.08705626E-02
  0.662500024       1.25000002E-02  -6.96230726E-03  -4.10461973E-04   2.14792825E-02
  0.687500000       1.25000002E-02  -6.10131398E-03  -4.51040076E-04   2.19489969E-02
  0.712499976       1.25000002E-02  -5.17511275E-03  -4.75664565E-04   2.22626030E-02
  0.737500012       1.25000002E-02  -4.21787240E-03  -4.82064061E-04   2.24103406E-02
  0.762499988       1.25000002E-02  -3.26744677E-03  -4.68828657E-04   2.23912764E-02
  0.787500024       1.25000002E-02  -2.36343569E-03  -4.35623660E-04   2.22143251E-02
  0.812500000       1.25000002E-02  -1.54486997E-03  -3.83352221E-04   2.18986794E-02
  0.837499976       1.25000002E-02  -8.47640855E-04  -3.14254867E-04   2.14736685E-02
  0.862500012       1.25000002E-02  -3.01726628E-04  -2.32005288E-04   2.09780894E-02
  0.887499988       1.25000002E-02   7.19048112E-05  -1.41943630E-04   2.04591807E-02
  0.912500024       1.25000002E-02   2.65331444E-04  -5.17790722E-05   1.99711211E-02
  0.937500000       1.25000002E-02   2.90190364E-04   2.66354855E-05   1.95726808E-02
  0.962499976       1.25000002E-02   1.89494502E-04   7.37751398E-05   1.93212610E-02
  0.987500012       1.25000002E-02   5.77874453E-05   5.76952698E-05   1.92557871E-02
   1.25000002E-02   3.75000015E-02   2.54454626E-05  -1.29666791E-04   1.33897969E-02
   3.75000015E-02   3.75000015E-02  -2.99972544E-05   3.01904201E-05   1.32632181E-02
   6.25000000E-02   3.75000015E-02  -3.65667365E-04   3.55960219E-04   1.30215380E-02
   8.75000060E-02   3.75000015E-02  -1.06497691E-03   7.15373200E-04   1.27162635E-02
  0.112500004       3.75000015E-02  -2.13086093E-03   1.04588596E-03   1.23930704E-02
  0.137500003       3.75000015E-02  -3.52351530E-03   1.32177514E-03   1.20879840E-02
  0.162500009       3.75000015E-02  -5.18402830E-03   1.53585011E-03   1.18271913E-02
  0.187500000       3.75000015E-02  -7.04799779E-03   1.68968318E-03   1.16286660E-02
  0.212500006       3.75000015E-02  -9.05256066E-03   1.78838253E-03   1.15042273E-02
  0.237500012       3.75000015E-02  -1.11393835E-02   1.83782075E-03   1.14614163E-02
  0.262499988       3.75000015E-02  -1.32553196E-02   1.84324221E-03   1.15049388E-02
  0.287499994       3.75000015E-02  -1.53518701E-02   1.80868711E-03   1.16376178E-02
  0.312500000       3.75000015E-02  -1.73841454E-02   1.73690123E-03   1.18609378E-02
  0.337500006       3.75000015E-02  -1.93097927E-02   1.62953371E-03   1.21752135E-02
  0.362499982       3.75000015E-02  -2.10881531E-02   1.48749584E-03   1.25794997E-02
  0.387499988       3.75000015E-02  -2.26797871E-02   1.31137832E-03   1.30713126E-02
  0.412499994       3.75000015E-02  -2.40464434E-02   1.10188243E-03   1.36462450E-02
  0.437500000       3.75000015E-02  -2.51514390E-02   8.60218308E-04   1.42975356E-02
  0.462500006       3.75000015E-02  -2.59604640E-02   5.88462455E-04   1.50156636E-02
  0.487499982       3.75000015E-02  -2.64427774E-02   2.89887481E-04   1.57880262E-02
  0.512499988       3.75000015E-02  -2.65727174E-02  -3.06121619E-05   1.65987574E-02
  0.537500024       3.75000015E-02  -2.63314918E-02  -3.65595857E-04   1.74253471E-02
  0.562500000       3.75000015E-02  -2.57090516E-02  -7.06312072E-04   1.82441380E-02
  0.587499976       3.75000015E-02  -2.47061644E-02  -1.04220060E-03   1.90312639E-02
  0.612500012       3.75000015E-02  -2.33363491E-02  -1.36090838E-03   1.97618287E-02
  0.637499988       3.75000015E-02  -2.16273721E-02  -1.64878462E-03   2.04111971E-02
  0.662500024       3.75000015E-02  -1.96220949E-02  -1.89162698E-03   2.09565107E-02
  0.687500000       3.75000015E-02  -1.73784494E-02  -2.07562884E-03   2.13783681E-02
  0.712499976       3.75000015E-02  -1.49683692E-02  -2.18845671E-03   2.16625035E-02
  0.737500012       3.75000015E-02  -1.24755511E-02  -2.22039782E-03   2.18013227E-02
  0.762499988       3.75000015E-02  -9.99201182E-03  -2.16548331E-03   2.17951350E-02
  0.787500024       3.75000015E-02  -7.61350105E-03  -2.02245871E-03   2.16528978E-02
  0.812500000       3.75000015E-02  -5.43393102E-03  -1.79555570E-03   2.13924292E-02
  0.837499976       3.75000015E-02  -3.53900413E-03  -1.49504142E-03   2.10400298E-02
  0.862500012       3.75000015E-02  -1.99920381E-03  -1.13770040E-03   2.06295624E-02
  0.887499988       3.75000015E-02  -8.62078043E-04  -7.47713028E-04   2.02010497E-02
  0.912500024       3.75000015E-02  -1.43385871E-04  -3.58791527E-04   1.97987370E-02
  0.937500000       3.75000015E-02   1.83789540E-04  -1.90265146E-05   1.94684379E-02
  0.962499976       3.75000015E-02   2.03299860E-04   1.99984264E-04   1.92535445E-02
  0.987500012       3.75000015E-02   7.53443819E-05   1.90609877E-04   1.91903412E-02
   1.25000002E-02   6.25000000E-02  -5.25135438E-05  -1.03516781E-04   1.36830593E-02
   3.75000015E-02   6.25000000E-02  -3.67517467E-04   3.72427981E-04   1.35020958E-02
   6.25000000E-02   6.25000000E-02  -1.15112890E-03   1.13075494E-03   1.32548064E-02
   8.75000060E-02   6.25000000E-02  -2.45884014E-03   1.94542168E-03   1.29736755E-02
  0.112500004       6.25000000E-02  -4.27679345E-03   2.69758003E-03   1.26887783E-02
  0.137500003       6.25000000E-02  -6.54795393E-03   3.33189080E-03   1.24250799E-02
  0.162500009       6.25000000E-02  -9.19256732E-03   3.82895023E-03   1.22017395E-02
  0.187500000       6.25000000E-02  -1.21221785E-02   4.18834807E-03   1.20326616E-02
  0.212500006       6.25000000E-02  -1.52480714E-02   4.41845320E-03   1.19275991E-02
  0.237500012       6.25000000E-02  -1.84855759E-02   4.53044428E-03   1.18932724E-02
  0.262499988       6.25000000E-02  -2.17556059E-02   4.53504082E-03   1.19343093E-02
  0.287499994       6.25000000E-02  -2.49846093E-02   4.44098422E-03   1.20538780E-02
  0.312500000       6.25000000E-02  -2.81037558E-02   4.25464194E-03   1.22540258E-02
  0.337500006       6.25000000E-02  -3.10479328E-02   3.98029666E-03   1.25357565E-02
  0.362499982       6.25000000E-02  -3.37549374E-02   3.62084201E-03   1.28988856E-02
  0.387499988       6.25000000E-02  -3.61651331E-02   3.17865680E-03   1.33417770E-02
  0.412499994       6.25000000E-02  -3.82215604E-02   2.65652733E-03   1.38609624E-02
  0.437500000       6.25000000E-02  -3.98706496E-02   2.05852650E-03   1.44507689E-02
  0.462500006       6.25000000E-02  -4.10633795E-02   1.39080209E-03   1.51029229E-02
  0.487499982       6.25000000E-02  -4.17569280E-02   6.62302133E-04   1.58063211E-02
  0.512499988       6.25000000E-02  -4.19166274E-02  -1.14507435E-04   1.65469013E-02
  0.537500024       6.25000000E-02  -4.15179655E-02  -9.22713487E-04   1.73026752E-02
  0.562500000       6.25000000E-02  -4.05491441E-02  -1.74159382E-03   1.80518702E-02
  0.587499976       6.25000000E-02  -3.90139818E-02  -2.54612626E-03   1.87726580E-02
  0.612500012       6.25000000E-02  -3.69344354E-02  -3.30751762E-03   1.94421876E-02
  0.637499988       6.25000000E-02  -3.43524404E-02  -3.99433216E-03   2.00378429E-02
  0.662500024       6.25000000E-02  -3.13308872E-02  -4.57409769E-03   2.05386914E-02
  0.687500000       6.25000000E-02  -2.79534888E-02  -5.01538068E-03   2.09270641E-02
  0.712499976       6.25000000E-02  -2.43232846E-02  -5.29014925E-03   2.11901274E-02
  0.737500012       6.25000000E-02  -2.05596015E-02  -5.37633803E-03   2.13212855E-02
  0.762499988       6.25000000E-02  -1.67933702E-02  -5.26039675E-03   2.13212706E-02
  0.787500024       6.25000000E-02  -1.31608471E-02  -4.93960176E-03   2.11986974E-02
  0.812500000       6.25000000E-02  -9.79584269E-03  -4.42394707E-03   2.09701005E-02
  0.837499976       6.25000000E-02  -6.82072667E-03  -3.73758329E-03   2.06593368E-02
  0.862500012       6.25000000E-02  -4.33654105E-03  -2.91996822E-03   2.02963874E-02
  0.887499988       6.25000000E-02  -2.41247541E-03  -2.02740193E-03   1.99157242E-02
  0.912500024       6.25000000E-02  -1.07491831E-03  -1.13607140E-03   1.95542239E-02
  0.937500000       6.25000000E-02  -2.96212587E-04  -3.48321657E-04   1.92488413E-02
  0.962499976       6.25000000E-02   1.68969455E-05   1.95975052E-04   1.90341882E-02
  0.987500012       6.25000000E-02   3.65876076E-05   3.02300963E-04   1.89412571E-02
   1.25000002E-02   8.75000060E-02  -1.46442049E-04   9.44921558E-05   1.40738189E-02
   3.75000015E-02   8.75000060E-02  -7.70208135E-04   1.11106969E-03   1.38071366E-02
   6.25000000E-02   8.75000060E-02  -2.06808769E-03   2.47129146E-03   1.35208052E-02
   8.75000060E-02   8.75000060E-02  -4.03848710E-03   3.88075318E-03   1.32319788E-02
  0.112500004       8.75000060E-02  -6.63332455E-03   5.17287524E-03   1.29578700E-02
  0.137500003       8.75000060E-02  -9.77158919E-03   6.26393966E-03   1.27134491E-02
  0.162500009       8.75000060E-02  -1.33532556E-02   7.12118484E-03   1.25106657E-02
  0.187500000       8.75000060E-02  -1.72703713E-02   7.74093345E-03   1.23585854E-02
  0.212500006       8.75000060E-02  -2.14145463E-02   8.13412108E-03   1.22639425E-02
  0.237500012       8.75000060E-02  -2.56811846E-02   8.31719115E-03   1.22318035E-02
  0.262499988       8.75000060E-02  -2.99712792E-02   8.30677990E-03   1.22660864E-02
  0.287499994       8.75000060E-02  -3.41916606E-02   8.11707973E-03   1.23699140E-02
  0.312500000       8.75000060E-02  -3.82544510E-02   7.75901414E-03   1.25457281E-02
  0.337500006       8.75000060E-02  -4.20763195E-02   7.24056410E-03   1.27952434E-02
  0.362499982       8.75000060E-02  -4.55778763E-02   6.56780601E-03   1.31192002E-02
  0.387499988       8.75000060E-02  -4.86835316E-02   5.74628171E-03   1.35170454E-02
  0.412499994       8.75000060E-02  -5.13218828E-02   4.78247274E-03   1.39865270E-02
  0.437500000       8.75000060E-02  -5.34266084E-02   3.68522480E-03   1.45232771E-02
  0.462500006       8.75000060E-02  -5.49379289E-02   2.46701390E-03   1.51204579E-02
  0.487499982       8.75000060E-02  -5.58044761E-02   1.14506390E-03   1.57684665E-02
  0.512499988       8.75000060E-02  -5.59854358E-02  -2.57725740E-04   1.64548196E-02
  0.537500024       8.75000060E-02  -5.54527640E-02  -1.71193900E-03   1.71579625E-02
  0.562500000       8.75000060E-02  -5.41940555E-02  -3.18101933E-03   1.78573821E-02
  0.587499976       8.75000060E-02  -5.22158742E-02  -4.62117372E-03   1.85324736E-02
  0.612500012       8.75000060E-02  -4.95465249E-02  -5.98249957E-03   1.91614572E-02
  0.637499988       8.75000060E-02  -4.62381318E-02  -7.21087540E-03   1.97226368E-02
  0.662500024       8.75000060E-02  -4.23677713E-02  -8.25061090E-03   2.01957785E-02
  0.687500000       8.75000060E-02  -3.80373448E-02  -9.04781744E-03   2.05637310E-02
  0.712499976       8.75000060E-02  -3.33720297E-02  -9.55433957E-03   2.08139401E-02
  0.737500012       8.75000060E-02  -2.85168644E-02  -9.73207038E-03   2.09398270E-02
  0.762499988       8.75000060E-02  -2.36314852E-02  -9.55730584E-03   2.09418163E-02
  0.787500024       8.75000060E-02  -1.88828185E-02  -9.02485661E-03   2.08278429E-02
  0.812500000       8.75000060E-02  -1.44359386E-02  -8.15149117E-03   2.06132103E-02
  0.837499976       8.75000060E-02  -1.04433373E-02  -6.97860448E-03   2.03198306E-02
  0.862500012       8.75000060E-02  -7.03311991E-03  -5.57413511E-03   1.99748129E-02
  0.887499988       8.75000060E-02  -4.29680385E-03  -4.03434876E-03   1.96086317E-02
  0.912500024       8.75000060E-02  -2.27753469E-03  -2.48663686E-03   1.92529652E-02
  0.937500000       8.75000060E-02  -9.59659636E-04  -1.09499204E-03   1.89385470E-02
  0.962499976       8.75000060E-02  -2.60592642E-04  -7.01703393E-05   1.86932459E-02
  0.987500012       8.75000060E-02  -2.55215800E-05   3.13147902E-04   1.85408033E-02
   1.25000002E-02  0.112500004      -2.41987655E-04   4.81934345E-04   1.44972960E-02
   3.75000015E-02  0.112500004      -1.18586363E-03   2.28906656E-03   1.41307516E-02
   6.25000000E-02  0.112500004      -3.01996293E-03   4.42287745E-03   1.37861315E-02
   8.75000060E-02  0.112500004      -5.67329256E-03   6.55057374E-03   1.34690357E-02
  0.112500004      0.112500004      -9.05208662E-03   8.47444125E-03   1.31862480E-02
  0.137500003      0.112500004      -1.30443014E-02   1.00906901E-02   1.29440557E-02
  0.162500009      0.112500004      -1.75271425E-02   1.13568595E-02   1.27476538E-02
  0.187500000      0.112500004      -2.23741382E-02   1.22673716E-02   1.26011875E-02
  0.212500006      0.112500004      -2.74603423E-02   1.28361564E-02   1.25080682E-02
  0.237500012      0.112500004      -3.26654539E-02   1.30850878E-02   1.24713229E-02
  0.262499988      0.112500004      -3.78751531E-02   1.30369458E-02   1.24938469E-02
  0.287499994      0.112500004      -4.29812558E-02   1.27117634E-02   1.25785042E-02
  0.312500000      0.112500004      -4.78812791E-02   1.21256057E-02   1.27280569E-02
  0.337500006      0.112500004      -5.24778664E-02   1.12909600E-02   1.29449572E-02
  0.362499982      0.112500004      -5.66783920E-02   1.02181034E-02   1.32309832E-02
  0.387499988      0.112500004      -6.03950322E-02   8.91697034E-03   1.35868359E-02
  0.412499994      0.112500004      -6.35453314E-02   7.39918323E-03   1.40116643E-02
  0.437500000      0.112500004      -6.60533011E-02   5.68001624E-03   1.45025868E-02
  0.462500006      0.112500004      -6.78510442E-02   3.78012960E-03   1.50542781E-02
  0.487499982      0.112500004      -6.88806996E-02   1.72702433E-03   1.56586282E-02
  0.512499988      0.112500004      -6.90966845E-02  -4.43841884E-04   1.63045488E-02
  0.537500024      0.112500004      -6.84679970E-02  -2.68827565E-03   1.69710498E-02
  0.562500000      0.112500004      -6.69812262E-02  -4.95125260E-03   1.76381711E-02
  0.587499976      0.112500004      -6.46440685E-02  -7.16738217E-03   1.82858929E-02
  0.612500012      0.112500004      -6.14882186E-02  -9.26258322E-03   1.88927390E-02
  0.637499988      0.112500004      -5.75717688E-02  -1.11567285E-02   1.94370039E-02
  0.662500024      0.112500004      -5.29805869E-02  -1.27673987E-02   1.98981874E-02
  0.687500000      0.112500004      -4.78285253E-02  -1.40145998E-02   2.02586055E-02
  0.712499976      0.112500004      -4.22560573E-02  -1.48264002E-02   2.05049757E-02
  0.737500012      0.112500004      -3.64270434E-02  -1.51452171E-02   2.06298660E-02
  0.762499988      0.112500004      -3.05232890E-02  -1.49342827E-02   2.06327252E-02
  0.787500024      0.112500004      -2.47368477E-02  -1.41839236E-02   2.05204021E-02
  0.812500000      0.112500004      -1.92600451E-02  -1.29169859E-02   2.03069560E-02
  0.837499976      0.112500004      -1.42735532E-02  -1.11930165E-02   2.00127512E-02
  0.862500012      0.112500004      -9.93322581E-03  -9.11102071E-03   1.96629129E-02
  0.887499988      0.112500004      -6.35662954E-03  -6.81107258E-03   1.92853007E-02
  0.912500024      0.112500004      -3.61067173E-03  -4.47578868E-03   1.89082846E-02
  0.937500000      0.112500004      -1.70186593E-03  -2.33313115E-03   1.85585767E-02
  0.962499976      0.112500004      -5.71004872E-04  -6.62546663E-04   1.82593819E-02
  0.987500012      0.112500004      -9.42340048E-05   1.93196960E-04   1.80288404E-02
   1.25000002E-02  0.137500003      -3.33964330E-04   1.05684996E-03   1.48999281E-02
   3.75000015E-02  0.137500003      -1.59188092E-03   3.91364051E-03   1.44295637E-02
   6.25000000E-02  0.137500003      -3.95841990E-03   6.99644955E-03   1.40171312E-02
   8.75000060E-02  0.137500003      -7.29060732E-03   9.96010937E-03   1.36594977E-02
  0.112500004      0.137500003      -1.14433467E-02   1.25941085E-02   1.33549664E-02
  0.137500003      0.137500003      -1.62687190E-02   1.47863589E-02   1.31023871E-02
  0.162500009      0.137500003      -2.16185264E-02   1.64916702E-02   1.29009057E-02
  0.187500000      0.137500003      -2.73474343E-02   1.77063793E-02   1.27500687E-02
  0.212500006      0.137500003      -3.33154425E-02   1.84493661E-02   1.26500363E-02
  0.237500012      0.137500003      -3.93892527E-02   1.87488943E-02   1.26017621E-02
  0.262499988      0.137500003      -4.54426184E-02   1.86343975E-02   1.26070557E-02
  0.287499994      0.137500003      -5.13560623E-02   1.81321520E-02   1.26684839E-02
  0.312500000      0.137500003      -5.70162311E-02   1.72638036E-02   1.27891339E-02
  0.337500006      0.137500003      -6.23153299E-02   1.60469282E-02   1.29722450E-02
  0.362499982      0.137500003      -6.71508461E-02   1.44967502E-02   1.32207507E-02
  0.387499988      0.137500003      -7.14257509E-02   1.26285274E-02   1.35367271E-02
  0.412499994      0.137500003      -7.50491992E-02   1.04601029E-02   1.39208734E-02
  0.437500000      0.137500003      -7.79377148E-02   8.01438466E-03   1.43719073E-02
  0.462500006      0.137500003      -8.00168514E-02   5.32150175E-03   1.48860849E-02
  0.487499982      0.137500003      -8.12232345E-02   2.42058095E-03   1.54567938E-02
  0.512499988      0.137500003      -8.15067589E-02  -6.38968428E-04   1.60742402E-02
  0.537500024      0.137500003      -8.08329582E-02  -3.79669992E-03   1.67182796E-02
  0.562500000      0.137500003      -7.91859776E-02  -6.97762053E-03   1.73687842E-02
  0.587499976      0.137500003      -7.65721202E-02  -1.00930911E-02   1.80058349E-02
  0.612500012      0.137500003      -7.30229914E-02  -1.30428988E-02   1.86076667E-02
  0.637499988      0.137500003      -6.85982853E-02  -1.57186128E-02   1.91518124E-02
  0.662500024      0.137500003      -6.33876920E-02  -1.80083364E-02   1.96166653E-02
  0.687500000      0.137500003      -5.75116798E-02  -1.98027790E-02   1.99830979E-02
  0.712499976      0.137500003      -5.11207283E-02  -2.10026596E-02   2.02361923E-02
  0.737500012      0.137500003      -4.43926230E-02  -2.15270706E-02   2.03668028E-02
  0.762499988      0.137500003      -3.75273749E-02  -2.13223826E-02   2.03726999E-02
  0.787500024      0.137500003      -3.07395197E-02  -2.03710198E-02   2.02591885E-02
  0.812500000      0.137500003      -2.42477320E-02  -1.86993256E-02   2.00389363E-02
  0.837499976      0.137500003      -1.82620306E-02  -1.63836516E-02   1.97310429E-02
  0.862500012      0.137500003      -1.29693542E-02  -1.35541093E-02   1.93593949E-02
  0.887499988      0.137500003      -8.51878524E-03  -1.03958119E-02   1.89504959E-02
  0.912500024      0.137500003      -5.00817411E-03  -7.14822952E-03   1.85311250E-02
  0.937500000      0.137500003      -2.47429940E-03  -4.10393625E-03   1.81260891E-02
  0.962499976      0.137500003      -8.88851762E-04  -1.60858070E-03   1.77563205E-02
  0.987500012      0.137500003      -1.62806173E-04  -6.40139551E-05   1.74372364E-02
   1.25000002E-02  0.162500009      -4.20690514E-04   1.81041798E-03   1.52375577E-02
   3.75000015E-02  0.162500009      -1.97875802E-03   5.97364875E-03   1.46648809E-02
   6.25000000E-02  0.162500009      -4.85949637E-03   1.01811234E-02   1.41812889E-02
   8.75000060E-02  0.162500009      -8.85016564E-03   1.40957898E-02   1.37766395E-02
  0.112500004      0.162500009      -1.37529727E-02   1.75115615E-02   1.34421196E-02
  0.137500003      0.162500009      -1.93819068E-02   2.03208812E-02   1.31701669E-02
  0.162500009      0.162500009      -2.55617872E-02   2.24845856E-02   1.29546029E-02
  0.187500000      0.162500009      -3.21280584E-02   2.40064748E-02   1.27908587E-02
  0.212500006      0.162500009      -3.89265195E-02   2.49136668E-02   1.26761524E-02
  0.237500012      0.162500009      -4.58127372E-02   2.52426472E-02   1.26095507E-02
  0.262499988      0.162500009      -5.26511036E-02   2.50305124E-02   1.25918929E-02
  0.287499994      0.162500009      -5.93137182E-02   2.43103374E-02   1.26255285E-02
  0.312500000      0.162500009      -6.56793714E-02   2.31097825E-02   1.27139604E-02
  0.337500006      0.162500009      -7.16327727E-02   2.14519054E-02   1.28613114E-02
  0.362499982      0.162500009      -7.70642906E-02   1.93573590E-02   1.30717773E-02
  0.387499988      0.162500009      -8.18700716E-02   1.68472603E-02   1.33489370E-02
  0.412499994      0.162500009      -8.59528184E-02   1.39463022E-02   1.36951432E-02
  0.437500000      0.162500009      -8.92229676E-02   1.06856804E-02   1.41108315E-02
  0.462500006      0.162500009      -9.16003957E-02   7.10566342E-03   1.45939235E-02
  0.487499982      0.162500009      -9.30163264E-02   3.25766881E-03   1.51393209E-02
  0.512499988      0.162500009      -9.34156254E-02  -7.94264372E-04   1.57385208E-02
  0.537500024      0.162500009      -9.27591026E-02  -4.97274008E-03   1.63726844E-02
  0.562500000      0.162500009      -9.10263211E-02  -9.18231811E-03   1.70208048E-02
  0.587499976      0.162500009      -8.82191807E-02  -1.33103915E-02   1.76627673E-02
  0.612500012      0.162500009      -8.43653977E-02  -1.72294937E-02   1.82760190E-02
  0.637499988      0.162500009      -7.95218945E-02  -2.08012089E-02   1.88367497E-02
  0.662500024      0.162500009      -7.37774521E-02  -2.38817669E-02   1.93214975E-02
  0.687500000      0.162500009      -6.72543794E-02  -2.63294205E-02   1.97088625E-02
  0.712499976      0.162500009      -6.01087511E-02  -2.80135721E-02   1.99813917E-02
  0.737500012      0.162500009      -5.25286272E-02  -2.88253427E-02   2.01273337E-02
  0.762499988      0.162500009      -4.47297394E-02  -2.86891647E-02   2.01420132E-02
  0.787500024      0.162500009      -3.69482152E-02  -2.75744833E-02   2.00285856E-02
  0.812500000      0.162500009      -2.94301026E-02  -2.55065784E-02   1.97980590E-02
  0.837499976      0.162500009      -2.24178415E-02  -2.25751232E-02   1.94684099E-02
  0.862500012      0.162500009      -1.61344931E-02  -1.89393573E-02   1.90628842E-02
  0.887499988      0.162500009      -1.07672336E-02  -1.48290247E-02   1.86077543E-02
  0.912500024      0.162500009      -6.45217998E-03  -1.05412509E-02   1.81298070E-02
  0.937500000      0.162500009      -3.26319458E-03  -6.43429067E-03   1.76539514E-02
  0.962499976      0.162500009      -1.20736158E-03  -2.91997567E-03   1.72012001E-02
  0.987500012      0.162500009      -2.29714715E-04  -4.56676411E-04   1.67869814E-02
   1.25000002E-02  0.187500000      -5.01674309E-04   2.73164921E-03   1.54726747E-02
   3.75000015E-02  0.187500000      -2.34237593E-03   8.44868366E-03   1.48020815E-02
   6.25000000E-02  0.187500000      -5.71081974E-03   1.39525859E-02   1.42477704E-02
   8.75000060E-02  0.187500000      -1.03287967E-02   1.89303868E-02   1.37935001E-02
  0.112500004      0.187500000      -1.59472041E-02   2.31956802E-02   1.34242112E-02
  0.137500003      0.187500000      -2.23419406E-02   2.66580246E-02   1.31266918E-02
  0.162500009      0.187500000      -2.93106157E-02   2.92936768E-02   1.28900912E-02
  0.187500000      0.187500000      -3.66696119E-02   3.11204195E-02   1.27062472E-02
  0.212500006      0.187500000      -4.42513600E-02   3.21778059E-02   1.25698335E-02
  0.237500012      0.187500000      -5.19017763E-02   3.25131193E-02   1.24783413E-02
  0.262499988      0.187500000      -5.94778359E-02   3.21725607E-02   1.24318600E-02
  0.287499994      0.187500000      -6.68455362E-02   3.11968103E-02   1.24327131E-02
  0.312500000      0.187500000      -7.38782287E-02   2.96199825E-02   1.24849426E-02
  0.337500006      0.187500000      -8.04555416E-02   2.74708830E-02   1.25937071E-02
  0.362499982      0.187500000      -8.64628404E-02   2.47757658E-02   1.27645675E-02
  0.387499988      0.187500000      -9.17913020E-02   2.15617716E-02   1.30027495E-02
  0.412499994      0.187500000      -9.63385403E-02   1.78605616E-02   1.33123733E-02
  0.437500000      0.187500000     -0.100009784       1.37117086E-02   1.36957075E-02
  0.462500006      0.187500000     -0.102719449       9.16567072E-03   1.41524468E-02
  0.487499982      0.187500000     -0.104392990       4.28614672E-03   1.46790873E-02
  0.512499988      0.187500000     -0.104969166      -8.48216936E-04   1.52684860E-02
  0.537500024      0.187500000     -0.104402341      -6.14305213E-03   1.59038194E-02
  0.562500000      0.187500000     -0.102665089      -1.14829261E-02   1.65625345E-02
  0.587499976      0.187500000      -9.97515842E-02  -1.67313330E-02   1.72241367E-02
  0.612500012      0.187500000      -9.56817493E-02  -2.17330717E-02   1.78649649E-02
  0.637499988      0.187500000      -9.05053318E-02  -2.63184626E-02   1.84593908E-02
  0.662500024      0.187500000      -8.43055844E-02  -3.03096212E-02   1.89814121E-02
  0.687500000      0.187500000      -7.72021636E-02  -3.35289761E-02   1.94065534E-02
  0.712499976      0.187500000      -6.93526864E-02  -3.58100384E-02   1.97139159E-02
  0.737500012      0.187500000      -6.09522983E-02  -3.70102972E-02   1.98881701E-02
  0.762499988      0.187500000      -5.22305891E-02  -3.70256826E-02   1.99212693E-02
  0.787500024      0.187500000      -4.34451886E-02  -3.58057246E-02   1.98134910E-02
  0.812500000      0.187500000      -3.48714553E-02  -3.33679616E-02   1.95737090E-02
  0.837499976      0.187500000      -2.67883763E-02  -2.98098065E-02   1.92187186E-02
  0.862500012      0.187500000      -1.94612332E-02  -2.53158249E-02   1.87715758E-02
  0.887499988      0.187500000      -1.31227244E-02  -2.01589186E-02   1.82592981E-02
  0.912500024      0.187500000      -7.95494579E-03  -1.46947149E-02   1.77101418E-02
  0.937500000      0.187500000      -4.07537119E-03  -9.34984628E-03   1.71509758E-02
  0.962499976      0.187500000      -1.52996927E-03  -4.60605649E-03   1.66049991E-02
  0.987500012      0.187500000      -2.96004262E-04  -9.82507598E-04   1.60898976E-02
   1.25000002E-02  0.212500006      -5.76717954E-04   3.80886765E-03   1.55723784E-02
   3.75000015E-02  0.212500006      -2.68052774E-03   1.13133909E-02   1.48098674E-02
   6.25000000E-02  0.212500006      -6.50503067E-03   1.82780623E-02   1.41875800E-02
   8.75000060E-02  0.212500006      -1.17116831E-02   2.44268887E-02   1.36836078E-02
  0.112500004      0.212500006      -1.80031080E-02   2.96064503E-02   1.32771581E-02
  0.137500003      0.212500006      -2.51187533E-02   3.37551683E-02   1.29499277E-02
  0.162500009      0.212500006      -3.28299701E-02   3.68740521E-02   1.26869399E-02
  0.187500000      0.212500006      -4.09349389E-02   3.90017331E-02   1.24769164E-02
  0.212500006      0.212500006      -4.92537692E-02   4.01949100E-02   1.23124141E-02
  0.237500012      0.212500006      -5.76240644E-02   4.05146778E-02   1.21897031E-02
  0.262499988      0.212500006      -6.58970848E-02   4.00181636E-02   1.21084042E-02
  0.287499994      0.212500006      -7.39346147E-02   3.87546457E-02   1.20710311E-02
  0.312500000      0.212500006      -8.16065669E-02   3.67651395E-02   1.20823663E-02
  0.337500006      0.212500006      -8.87893736E-02   3.40843350E-02   1.21487416E-02
  0.362499982      0.212500006      -9.53651518E-02   3.07439994E-02   1.22772427E-02
  0.387499988      0.212500006     -0.101221472       2.67770570E-02   1.24748712E-02
  0.412499994      0.212500006     -0.106251851       2.22217701E-02   1.27476603E-02
  0.437500000      0.212500006     -0.110356748       1.71256270E-02   1.30998567E-02
  0.462500006      0.212500006     -0.113444999       1.15487073E-02   1.35330614E-02
  0.487499982      0.212500006     -0.115435593       5.56636415E-03   1.40455421E-02
  0.512499988      0.212500006     -0.116259828      -7.28853745E-04   1.46316327E-02
  0.537500024      0.212500006     -0.115863688      -7.22615933E-03   1.52774993E-02
  0.562500000      0.212500006     -0.114210159      -1.37913683E-02   1.59585048E-02
  0.587499976      0.212500006     -0.111282423      -2.02649012E-02   1.66537184E-02
  0.612500012      0.212500006     -0.107088655      -2.64638849E-02   1.73382089E-02
  0.637499988      0.212500006     -0.101667076      -3.21864486E-02   1.79841220E-02
  0.662500024      0.212500006      -9.50908288E-02  -3.72184440E-02   1.85623504E-02