 VARIABLES="X","Y","U","V","P"
 ZONE F=POINT, I=          40 , J=          40
   1.25000002E-02   1.25000002E-02   3.42258791E-05  -3.42259955E-05   8.61642510E-03
   3.75000015E-02   1.25000002E-02   7.39866664E-05  -5.57099338E-06   8.51605833E-03
   6.25000000E-02   1.25000002E-02   2.46118652E-05   5.48863391E-05   8.30749981E-03
   8.75000060E-02   1.25000002E-02  -1.48778796E-04   1.18456679E-04   8.05096235E-03
  0.112500004       1.25000002E-02  -4.41500510E-04   1.74217828E-04   7.79518578E-03
  0.137500003       1.25000002E-02  -8.34631617E-04   2.18867179E-04   7.57445954E-03
  0.162500009       1.25000002E-02  -1.30574242E-03   2.52197613E-04   7.41123967E-03
  0.187500000       1.25000002E-02  -1.83314527E-03   2.75159953E-04   7.31938332E-03
  0.212500006       1.25000002E-02  -2.39737774E-03   2.89028394E-04   7.30684586E-03
  0.237500012       1.25000002E-02  -2.98148254E-03   2.95033416E-04   7.37767387E-03
  0.262499988       1.25000002E-02  -3.57076642E-03   2.94208701E-04   7.53338216E-03
  0.287499994       1.25000002E-02  -4.15235898E-03   2.87343370E-04   7.77383521E-03
  0.312500000       1.25000002E-02  -4.71472554E-03   2.74983700E-04   8.09774268E-03
  0.337500006       1.25000002E-02  -5.24722040E-03   2.57473788E-04   8.50289129E-03
  0.362499982       1.25000002E-02  -5.73973637E-03   2.35005864E-04   8.98612570E-03
  0.387499988       1.25000002E-02  -6.18246198E-03   2.07685312E-04   9.54321958E-03
  0.412499994       1.25000002E-02  -6.56577526E-03   1.75593625E-04   1.01686446E-02
  0.437500000       1.25000002E-02  -6.88025076E-03   1.38849166E-04   1.08552994E-02
  0.462500006       1.25000002E-02  -7.11679552E-03   9.76656083E-05   1.15942294E-02
  0.487499982       1.25000002E-02  -7.26689631E-03   5.24067800E-05   1.23743843E-02
  0.512499988       1.25000002E-02  -7.32298661E-03   3.65516235E-06   1.31823979E-02
  0.537500024       1.25000002E-02  -7.27907661E-03  -4.75921770E-05   1.40018249E-02
  0.562500000       1.25000002E-02  -7.13141542E-03  -1.00094272E-04   1.48141365E-02
  0.587499976       1.25000002E-02  -6.87893713E-03  -1.52409775E-04   1.56003051E-02
  0.612500012       1.25000002E-02  -6.52374234E-03  -2.02809519E-04   1.63405221E-02
  0.637499988       1.25000002E-02  -6.07163087E-03  -2.49324308E-04   1.70149226E-02
  0.662500024       1.25000002E-02  -5.53249009E-03  -2.89837597E-04   1.76045839E-02
  0.687500000       1.25000002E-02  -4.92046960E-03  -3.22205131E-04   1.80926640E-02
  0.712499976       1.25000002E-02  -4.25388245E-03  -3.44404019E-04   1.84656158E-02
  0.737500012       1.25000002E-02  -3.55480565E-03  -3.54692398E-04   1.87143683E-02
  0.762499988       1.25000002E-02  -2.84836045E-03  -3.51772120E-04   1.88354030E-02
  0.787500024       1.25000002E-02  -2.16167676E-03  -3.34931421E-04   1.88316256E-02
  0.812500000       1.25000002E-02  -1.52259215E-03  -3.04170972E-04   1.87129173E-02
  0.837499976       1.25000002E-02  -9.58143384E-04  -2.60295055E-04   1.84964333E-02
  0.862500012       1.25000002E-02  -4.92849795E-04  -2.05015793E-04   1.82066355E-02
  0.887499988       1.25000002E-02  -1.46688602E-04  -1.41161479E-04   1.78751405E-02
  0.912500024       1.25000002E-02   6.76877025E-05  -7.32306507E-05   1.75404791E-02
  0.937500000       1.25000002E-02   1.49729851E-04  -8.82860513E-06   1.72474291E-02
  0.962499976       1.25000002E-02   1.20475182E-04   3.80658894E-05   1.70445200E-02
  0.987500012       1.25000002E-02   4.12003646E-05   4.11918554E-05   1.69741642E-02
   1.25000002E-02   3.75000015E-02   6.21710933E-06  -7.47046870E-05   8.71672947E-03
   3.75000015E-02   3.75000015E-02  -7.42172269E-05   7.54613575E-05   8.61555431E-03
   6.25000000E-02   3.75000015E-02  -3.82426282E-04   3.31288698E-04   8.44335556E-03
   8.75000060E-02   3.75000015E-02  -9.66551830E-04   5.99439838E-04   8.23962409E-03
  0.112500004       3.75000015E-02  -1.81971549E-03   8.38990556E-04   8.03856459E-03
  0.137500003       3.75000015E-02  -2.90728989E-03   1.03467284E-03   7.86661636E-03
  0.162500009       3.75000015E-02  -4.18323884E-03   1.18332519E-03   7.74267828E-03
  0.187500000       3.75000015E-02  -5.59909502E-03   1.28716801E-03   7.67944613E-03
  0.212500006       3.75000015E-02  -7.10840849E-03   1.35044602E-03   7.68492278E-03
  0.237500012       3.75000015E-02  -8.66855308E-03   1.37774670E-03   7.76374945E-03
  0.262499988       3.75000015E-02  -1.02410708E-02   1.37318368E-03   7.91821256E-03
  0.287499994       3.75000015E-02  -1.17912795E-02   1.34006026E-03   8.14892724E-03
  0.312500000       3.75000015E-02  -1.32875554E-02   1.28080195E-03   8.45526718E-03
  0.337500006       3.75000015E-02  -1.47005729E-02   1.19706464E-03   8.83556064E-03
  0.362499982       3.75000015E-02  -1.60026588E-02   1.08991773E-03   9.28710587E-03
  0.387499988       3.75000015E-02  -1.71673559E-02   9.60102770E-04   9.80607141E-03
  0.412499994       3.75000015E-02  -1.81692466E-02   8.08288576E-04   1.03873238E-02
  0.437500000       3.75000015E-02  -1.89840477E-02   6.35343371E-04   1.10242246E-02
  0.462500006       3.75000015E-02  -1.95890032E-02   4.42588353E-04   1.17084114E-02
  0.487499982       3.75000015E-02  -1.99635364E-02   2.32037186E-04   1.24296304E-02
  0.512499988       3.75000015E-02  -2.00901590E-02   6.66135429E-06   1.31756533E-02
  0.537500024       3.75000015E-02  -1.99555773E-02  -2.29161727E-04   1.39309401E-02
  0.562500000       3.75000015E-02  -1.95519216E-02  -4.69909224E-04   1.46782845E-02
  0.587499976       3.75000015E-02  -1.88780967E-02  -7.08965061E-04   1.54005438E-02
  0.612500012       3.75000015E-02  -1.79410726E-02  -9.38539393E-04   1.60799362E-02
  0.637499988       3.75000015E-02  -1.67569462E-02  -1.14989397E-03   1.66987814E-02
  0.662500024       3.75000015E-02  -1.53516950E-02  -1.33371982E-03   1.72404293E-02
  0.687500000       3.75000015E-02  -1.37614403E-02  -1.48065691E-03   1.76902711E-02
  0.712499976       3.75000015E-02  -1.20321214E-02  -1.58191542E-03   1.80368237E-02
  0.737500012       3.75000015E-02  -1.02184620E-02  -1.62997097E-03   1.82727445E-02
  0.762499988       3.75000015E-02  -8.38218536E-03  -1.61926821E-03   1.83957480E-02
  0.787500024       3.75000015E-02  -6.58947276E-03  -1.54688430E-03   1.84092782E-02
  0.812500000       3.75000015E-02  -4.90771327E-03  -1.41311111E-03   1.83229148E-02
  0.837499976       3.75000015E-02  -3.40161659E-03  -1.22194760E-03   1.81524605E-02
  0.862500012       3.75000015E-02  -2.12870189E-03  -9.81620746E-04   1.79197360E-02
  0.887499988       3.75000015E-02  -1.13400631E-03  -7.05460727E-04   1.76520478E-02
  0.912500024       3.75000015E-02  -4.43553319E-04  -4.13806411E-04   1.73813440E-02
  0.937500000       3.75000015E-02  -5.55966290E-05  -1.38297823E-04   1.71428341E-02
  0.962499976       3.75000015E-02   7.18368974E-05   6.93101028E-05   1.69725772E-02
  0.987500012       3.75000015E-02   3.93220580E-05   1.21693811E-04   1.69038065E-02
   1.25000002E-02   6.25000000E-02  -5.49823089E-05  -2.59990811E-05   8.92811734E-03
   3.75000015E-02   6.25000000E-02  -3.35288118E-04   3.87346663E-04   8.78608599E-03
   6.25000000E-02   6.25000000E-02  -9.82270460E-04   9.74428141E-04   8.61054659E-03
   8.75000060E-02   6.25000000E-02  -2.02086847E-03   1.57887070E-03   8.42499640E-03
  0.112500004       6.25000000E-02  -3.43117630E-03   2.12287996E-03   8.25161859E-03
  0.137500003       6.25000000E-02  -5.16569335E-03   2.57272623E-03   8.10888223E-03
  0.162500009       6.25000000E-02  -7.16303289E-03   2.91841291E-03   8.01088661E-03
  0.187500000       6.25000000E-02  -9.35720094E-03   3.16195982E-03   7.96770677E-03
  0.212500006       6.25000000E-02  -1.16831027E-02   3.31072975E-03   7.98611064E-03
  0.237500012       6.25000000E-02  -1.40793249E-02   3.37369228E-03   8.07033386E-03
  0.262499988       6.25000000E-02  -1.64891183E-02   3.35941743E-03   8.22273176E-03
  0.287499994       6.25000000E-02  -1.88603327E-02   3.27512203E-03   8.44424125E-03
  0.312500000       6.25000000E-02  -2.11448297E-02   3.12638795E-03   8.73468723E-03
  0.337500006       6.25000000E-02  -2.32977234E-02   2.91726901E-03   9.09288507E-03
  0.362499982       6.25000000E-02  -2.52767056E-02   2.65066628E-03   9.51666478E-03
  0.387499988       6.25000000E-02  -2.70415992E-02   2.32883357E-03   1.00027304E-02
  0.412499994       6.25000000E-02  -2.85542086E-02   1.95395341E-03   1.05465418E-02
  0.437500000       6.25000000E-02  -2.97785643E-02   1.52873469E-03   1.11421058E-02
  0.462500006       6.25000000E-02  -3.06814928E-02   1.05698383E-03   1.17817894E-02
  0.487499982       6.25000000E-02  -3.12335584E-02   5.44146460E-04   1.24562085E-02
  0.512499988       6.25000000E-02  -3.14102881E-02  -2.18390051E-06   1.31541677E-02
  0.537500024       6.25000000E-02  -3.11935507E-02  -5.71719022E-04   1.38607807E-02
  0.562500000       6.25000000E-02  -3.05732191E-02  -1.15141750E-03   1.45597868E-02
  0.587499976       6.25000000E-02  -2.95490734E-02  -1.72550464E-03   1.52353449E-02
  0.612500012       6.25000000E-02  -2.81325318E-02  -2.27564177E-03   1.58709977E-02
  0.637499988       6.25000000E-02  -2.63480619E-02  -2.78145960E-03   1.64504237E-02
  0.662500024       6.25000000E-02  -2.42341273E-02  -3.22140916E-03   1.69583019E-02
  0.687500000       6.25000000E-02  -2.18435004E-02  -3.57391685E-03   1.73812900E-02
  0.712499976       6.25000000E-02  -1.92427523E-02  -3.81878857E-03   1.77090112E-02
  0.737500012       6.25000000E-02  -1.65107865E-02  -3.93878482E-03   1.79350059E-02
  0.762499988       6.25000000E-02  -1.37363188E-02  -3.92125919E-03   1.80575307E-02
  0.787500024       6.25000000E-02  -1.10142436E-02  -3.75973852E-03   1.80801153E-02
  0.812500000       6.25000000E-02  -8.44096765E-03  -3.45534692E-03   1.80118252E-02
  0.837499976       6.25000000E-02  -6.10876549E-03  -3.01806512E-03   1.78671815E-02
  0.862500012       6.25000000E-02  -4.09925543E-03  -2.46798433E-03   1.76656786E-02
  0.887499988       6.25000000E-02  -2.47605843E-03  -1.83704542E-03   1.74309835E-02
  0.912500024       6.25000000E-02  -1.27658062E-03  -1.17220543E-03   1.71897393E-02
  0.937500000       6.25000000E-02  -5.02821291E-04  -5.41667221E-04   1.69699937E-02
  0.962499976       6.25000000E-02  -1.11167501E-04  -4.64612822E-05   1.67991892E-02
  0.987500012       6.25000000E-02  -1.11533882E-06   1.59878924E-04   1.67020820E-02
   1.25000002E-02   8.75000060E-02  -1.23192935E-04   1.52128618E-04   9.19348281E-03
   3.75000015E-02   8.75000060E-02  -6.26370311E-04   9.92572168E-04   8.98991432E-03
   6.25000000E-02   8.75000060E-02  -1.64226373E-03   2.03192607E-03   8.78692791E-03
   8.75000060E-02   8.75000060E-02  -3.15418607E-03   3.07175494E-03   8.59629642E-03
  0.112500004       8.75000060E-02  -5.11824153E-03   4.00422234E-03   8.43067374E-03
  0.137500003       8.75000060E-02  -7.47050997E-03   4.77803359E-03   8.30141921E-03
  0.162500009       8.75000060E-02  -1.01356702E-02   5.37547190E-03   8.21770076E-03
  0.187500000       8.75000060E-02  -1.30341761E-02   5.79744391E-03   8.18639621E-03
  0.212500006       8.75000060E-02  -1.60871800E-02   6.05402514E-03   8.21235776E-03
  0.237500012       8.75000060E-02  -1.92193575E-02   6.15867414E-03   8.29880498E-03
  0.262499988       8.75000060E-02  -2.23601311E-02   6.12488016E-03   8.44768062E-03
  0.287499994       8.75000060E-02  -2.54438221E-02   5.96444961E-03   8.65994208E-03
  0.312500000       8.75000060E-02  -2.84092464E-02   5.68686798E-03   8.93565733E-03
  0.337500006       8.75000060E-02  -3.11990455E-02   5.29937353E-03   9.27410275E-03
  0.362499982       8.75000060E-02  -3.37591022E-02   4.80749551E-03   9.67364851E-03
  0.387499988       8.75000060E-02  -3.60381529E-02   4.21584770E-03   1.01316450E-02
  0.412499994       8.75000060E-02  -3.79877612E-02   3.52906319E-03   1.06442617E-02
  0.437500000       8.75000060E-02  -3.95626500E-02   2.75277905E-03   1.12062627E-02
  0.462500006       8.75000060E-02  -4.07214463E-02   1.89458020E-03   1.18108401E-02
  0.487499982       8.75000060E-02  -4.14277986E-02   9.64885461E-04   1.24494610E-02
  0.512499988       8.75000060E-02  -4.16517779E-02  -2.22885028E-05   1.31118493E-02
  0.537500024       8.75000060E-02  -4.13715206E-02  -1.04868668E-03   1.37836533E-02
  0.562500000       8.75000060E-02  -4.05751690E-02  -2.09120498E-03   1.44491605E-02
  0.587499976       8.75000060E-02  -3.92631069E-02  -3.12199607E-03   1.50933033E-02
  0.612500012       8.75000060E-02  -3.74499448E-02  -4.10892069E-03   1.57003459E-02
  0.637499988       8.75000060E-02  -3.51661891E-02  -5.01646614E-03   1.62546113E-02
  0.662500024       8.75000060E-02  -3.24593969E-02  -5.80719113E-03   1.67413410E-02
  0.687500000       8.75000060E-02  -2.93945540E-02  -6.44366257E-03   1.71476342E-02
  0.712499976       8.75000060E-02  -2.60535590E-02  -6.89084176E-03   1.74634326E-02
  0.737500012       8.75000060E-02  -2.25335211E-02  -7.11878901E-03   1.76824462E-02
  0.762499988       8.75000060E-02  -1.89437736E-02  -7.10552465E-03   1.78029127E-02
  0.787500024       8.75000060E-02  -1.54015291E-02  -6.83984207E-03   1.78280808E-02
  0.812500000       8.75000060E-02  -1.20261963E-02  -6.32389821E-03   1.77663788E-02
  0.837499976       8.75000060E-02  -8.93247500E-03  -5.57548646E-03   1.76311694E-02
  0.862500012       8.75000060E-02  -6.22246508E-03  -4.63013165E-03   1.74400974E-02
  0.887499988       8.75000060E-02  -3.97713482E-03  -3.54347308E-03   1.72140375E-02
  0.912500024       8.75000060E-02  -2.24757101E-03  -2.39486387E-03   1.69757120E-02
  0.937500000       8.75000060E-02  -1.04667770E-03  -1.29370659E-03   1.67480148E-02
  0.962499976       8.75000060E-02  -3.42325337E-04  -3.90475383E-04   1.65521111E-02
  0.987500012       8.75000060E-02  -5.36362095E-05   1.05108098E-04   1.64054111E-02
   1.25000002E-02  0.112500004      -1.89186714E-04   4.64461744E-04   9.46520176E-03
   3.75000015E-02  0.112500004      -9.13685828E-04   1.90778798E-03   9.19236988E-03
   6.25000000E-02  0.112500004      -2.30058841E-03   3.51935718E-03   8.94887839E-03
   8.75000060E-02  0.112500004      -4.28555068E-03   5.08107245E-03   8.73854291E-03
  0.112500004      0.112500004      -6.79384451E-03   6.46711886E-03   8.56680423E-03
  0.137500003      0.112500004      -9.74089652E-03   7.61432434E-03   8.43909848E-03
  0.162500009      0.112500004      -1.30362269E-02   8.49954132E-03   8.36008415E-03
  0.187500000      0.112500004      -1.65877957E-02   9.12332162E-03   8.33341107E-03
  0.212500006      0.112500004      -2.03054436E-02   9.49867442E-03   8.36177915E-03
  0.237500012      0.112500004      -2.41030417E-02   9.64367948E-03   8.44709575E-03
  0.262499988      0.112500004      -2.78994665E-02   9.57695488E-03   8.59064329E-03
  0.287499994      0.112500004      -3.16187292E-02   9.31521598E-03   8.79316777E-03
  0.312500000      0.112500004      -3.51895764E-02   8.87226500E-03   9.05489642E-03
  0.337500006      0.112500004      -3.85449268E-02   8.25902354E-03   9.37550422E-03
  0.362499982      0.112500004      -4.16213460E-02   7.48421904E-03   9.75393783E-03
  0.387499988      0.112500004      -4.43587415E-02   6.55547436E-03   1.01882396E-02
  0.412499994      0.112500004      -4.67004105E-02   5.48062567E-03   1.06753642E-02
  0.437500000      0.112500004      -4.85934988E-02   4.26910585E-03   1.12109147E-02
  0.462500006      0.112500004      -4.99898270E-02   2.93329731E-03   1.17889456E-02
  0.487499982      0.112500004      -5.08471355E-02   1.48974988E-03   1.24017736E-02
  0.512499988      0.112500004      -5.11306338E-02  -3.97440090E-05   1.30399298E-02
  0.537500024      0.112500004      -5.08148074E-02  -1.62738631E-03   1.36895794E-02
  0.562500000      0.112500004      -4.98856083E-02  -3.23812710E-03   1.43350717E-02
  0.587499976      0.112500004      -4.83428575E-02  -4.82995296E-03   1.49616906E-02
  0.612500012      0.112500004      -4.62024808E-02  -6.35456201E-03   1.55539196E-02
  0.637499988      0.112500004      -4.34984416E-02  -7.75867794E-03   1.60961188E-02
  0.662500024      0.112500004      -4.02841344E-02  -8.98613408E-03   1.65734291E-02
  0.687500000      0.112500004      -3.66330668E-02  -9.98068228E-03   1.69726890E-02
  0.712499976      0.112500004      -3.26384380E-02  -1.06894970E-02   1.72834955E-02
  0.737500012      0.112500004      -2.84114685E-02  -1.10671930E-02   1.74990986E-02
  0.762499988      0.112500004      -2.40782313E-02  -1.10801551E-02   1.76172219E-02
  0.787500024      0.112500004      -1.97748691E-02  -1.07108653E-02   1.76405068E-02
  0.812500000      0.112500004      -1.56411957E-02  -9.96192638E-03   1.75766498E-02
  0.837499976      0.112500004      -1.18128639E-02  -8.85955710E-03   1.74380522E-02
  0.862500012      0.112500004      -8.41246452E-03  -7.45651498E-03   1.72410086E-02
  0.887499988      0.112500004      -5.54016838E-03  -5.83476201E-03   1.70045290E-02
  0.912500024      0.112500004      -3.26475711E-03  -4.10859380E-03   1.67487934E-02
  0.937500000      0.112500004      -1.61624886E-03  -2.42942176E-03   1.64934266E-02
  0.962499976      0.112500004      -5.81728353E-04  -9.93675087E-04   1.62556339E-02
  0.987500012      0.112500004      -1.06801126E-04  -5.53471837E-05   1.60482172E-02
   1.25000002E-02  0.137500003      -2.50461831E-04   9.04064975E-04   9.70678311E-03
   3.75000015E-02  0.137500003      -1.18560111E-03   3.12769972E-03   9.36367456E-03
   6.25000000E-02  0.137500003      -2.93198694E-03   5.43258991E-03   9.07357875E-03
   8.75000060E-02  0.137500003      -5.37810009E-03   7.59878196E-03   8.83499719E-03
  0.112500004      0.137500003      -8.41551740E-03   9.49498825E-03   8.64799414E-03
  0.137500003      0.137500003      -1.19360993E-02   1.10539598E-02   8.51321965E-03
  0.162500009      0.137500003      -1.58325620E-02   1.22515718E-02   8.43143836E-03
  0.187500000      0.137500003      -2.00002212E-02   1.30903944E-02   8.40332173E-03
  0.212500006      0.137500003      -2.43386589E-02   1.35875670E-02   8.42946302E-03
  0.237500012      0.137500003      -2.87527964E-02   1.37664061E-02   8.51039868E-03
  0.262499988      0.137500003      -3.31532620E-02   1.36510078E-02   8.64664372E-03
  0.287499994      0.137500003      -3.74561921E-02   1.32632460E-02   8.83866753E-03
  0.312500000      0.137500003      -4.15827036E-02   1.26214884E-02   9.08679515E-03
  0.337500006      0.137500003      -4.54582646E-02   1.17406137E-02   9.39107686E-03
  0.362499982      0.137500003      -4.90121841E-02   1.06328689E-02   9.75104794E-03
  0.387499988      0.137500003      -5.21773249E-02   9.30927321E-03   1.01655116E-02
  0.412499994      0.137500003      -5.48902377E-02   7.78132444E-03   1.06322486E-02
  0.437500000      0.137500003      -5.70916198E-02   6.06279448E-03   1.11477589E-02
  0.462500006      0.137500003      -5.87272532E-02   4.17149160E-03   1.17069790E-02
  0.487499982      0.137500003      -5.97493127E-02   2.13084952E-03   1.23031018E-02
  0.512499988      0.137500003      -6.01180121E-02  -2.87096609E-05   1.29273701E-02
  0.537500024      0.137500003      -5.98035604E-02  -2.26876768E-03   1.35665573E-02
  0.562500000      0.137500003      -5.87884933E-02  -4.54107486E-03   1.42045217E-02
  0.587499976      0.137500003      -5.70702925E-02  -6.78801257E-03   1.48265613E-02
  0.612500012      0.137500003      -5.46638519E-02  -8.94337427E-03   1.54169584E-02
  0.637499988      0.137500003      -5.16037680E-02  -1.09340455E-02   1.59596130E-02
  0.662500024      0.137500003      -4.79461886E-02  -1.26827015E-02   1.64389722E-02
  0.687500000      0.137500003      -4.37698737E-02  -1.41115431E-02   1.68410148E-02
  0.712499976      0.137500003      -3.91761959E-02  -1.51469931E-02   1.71543360E-02
  0.737500012      0.137500003      -3.42877172E-02  -1.57251898E-02   1.73711739E-02
  0.762499988      0.137500003      -2.92451195E-02  -1.57980341E-02   1.74882431E-02
  0.787500024      0.137500003      -2.42022276E-02  -1.53392851E-02   1.75072830E-02
  0.812500000      0.137500003      -1.93191171E-02  -1.43503342E-02   1.74351446E-02
  0.837499976      0.137500003      -1.47535158E-02  -1.28651243E-02   1.72834489E-02
  0.862500012      0.137500003      -1.06509533E-02  -1.09539479E-02   1.70676857E-02
  0.887499988      0.137500003      -7.13451160E-03  -8.72610509E-03   1.68058965E-02
  0.912500024      0.137500003      -4.29536961E-03  -6.33184239E-03   1.65170617E-02
  0.937500000      0.137500003      -2.18566810E-03  -3.96442041E-03   1.62193254E-02
  0.962499976      0.137500003      -8.15596897E-04  -1.86330476E-03   1.59281865E-02
  0.987500012      0.137500003      -1.57055707E-04  -3.19219456E-04   1.56546738E-02
   1.25000002E-02  0.162500009      -3.06939473E-04   1.46142230E-03   9.89019405E-03
   3.75000015E-02  0.162500009      -1.43986451E-03   4.63828724E-03   9.47873853E-03
   6.25000000E-02  0.162500009      -3.52906832E-03   7.75745232E-03   9.13992990E-03
   8.75000060E-02  0.162500009      -6.41895365E-03   1.06097907E-02   8.86855647E-03
  0.112500004      0.162500009      -9.96719301E-03   1.30695105E-02   8.66056886E-03
  0.137500003      0.162500009      -1.40407626E-02   1.50734633E-02   8.51276331E-03
  0.162500009      0.162500009      -1.85144469E-02   1.66020952E-02   8.42260476E-03
  0.187500000      0.162500009      -2.32705362E-02   1.76634993E-02   8.38815328E-03
  0.212500006      0.162500009      -2.81988047E-02   1.82810500E-02   8.40807799E-03
  0.237500012      0.162500009      -3.31963487E-02   1.84844919E-02   8.48163199E-03
  0.262499988      0.162500009      -3.81671265E-02   1.83040574E-02   8.60858336E-03
  0.287499994      0.162500009      -4.30212282E-02   1.77671276E-02   8.78913142E-03
  0.312500000      0.162500009      -4.76740338E-02   1.68968253E-02   9.02370084E-03
  0.337500006      0.162500009      -5.20453826E-02   1.57120954E-02   9.31273680E-03
  0.362499982      0.162500009      -5.60589656E-02   1.42287947E-02   9.65639763E-03
  0.387499988      0.162500009      -5.96419983E-02   1.24614369E-02   1.00542642E-02
  0.412499994      0.162500009      -6.27253056E-02   1.04252994E-02   1.05050206E-02
  0.437500000      0.162500009      -6.52438402E-02   8.13866220E-03   1.10061066E-02
  0.462500006      0.162500009      -6.71376288E-02   5.62497415E-03   1.15534021E-02
  0.487499982      0.162500009      -6.83531016E-02   2.91483756E-03   1.21409493E-02
  0.512499988      0.162500009      -6.88448399E-02   4.76807945E-05   1.27607407E-02
  0.537500024      0.162500009      -6.85775876E-02  -2.92692473E-03   1.34003470E-02
  0.562500000      0.162500009      -6.75287843E-02  -5.94684482E-03   1.40425144E-02
  0.587499976      0.162500009      -6.56913072E-02  -8.93797074E-03   1.46723269E-02
  0.612500012      0.162500009      -6.30763024E-02  -1.18149072E-02   1.52735086E-02
  0.637499988      0.162500009      -5.97160123E-02  -1.44829322E-02   1.58290640E-02
  0.662500024      0.162500009      -5.56661896E-02  -1.68412626E-02   1.63222309E-02
  0.687500000      0.162500009      -5.10078371E-02  -1.87876932E-02   1.67375375E-02
  0.712499976      0.162500009      -4.58478406E-02  -2.02245582E-02   1.70619898E-02
  0.737500012      0.162500009      -4.03181314E-02  -2.10658479E-02   1.72861964E-02
  0.762499988      0.162500009      -3.45729515E-02  -2.12451853E-02   1.74053814E-02
  0.787500024      0.162500009      -2.87839621E-02  -2.07240544E-02   1.74200106E-02
  0.812500000      0.162500009      -2.31329985E-02  -1.94996689E-02   1.73359662E-02
  0.837499976      0.162500009      -1.78027544E-02  -1.76116675E-02   1.71642229E-02
  0.862500012      0.162500009      -1.29658077E-02  -1.51469484E-02   1.69199556E-02
  0.887499988      0.162500009      -8.77312478E-03  -1.22422623E-02   1.66211054E-02
  0.912500024      0.162500009      -5.34343906E-03  -9.08454414E-03   1.62867121E-02
  0.937500000      0.162500009      -2.75532203E-03  -5.90956677E-03   1.59350671E-02
  0.962499976      0.162500009      -1.04394660E-03  -2.99963681E-03   1.55819412E-02
  0.987500012      0.162500009      -2.04558397E-04  -6.80845929E-04   1.52389044E-02
   1.25000002E-02  0.187500000      -3.59292142E-04   2.12761085E-03   9.99306142E-03
   3.75000015E-02  0.187500000      -1.67785340E-03   6.42346963E-03   9.51619912E-03
   6.25000000E-02  0.187500000      -4.09253407E-03   1.04760192E-02   9.12867673E-03
   8.75000060E-02  0.187500000      -7.40732998E-03   1.40957814E-02   8.82242434E-03
  0.112500004      0.187500000      -1.14472071E-02   1.71715133E-02   8.59009009E-03
  0.137500003      0.187500000      -1.60541814E-02   1.96518824E-02   8.42527114E-03
  0.162500009      0.187500000      -2.10847184E-02   2.15277821E-02   8.32263194E-03
  0.187500000      0.187500000      -2.64079161E-02   2.28169858E-02   8.27799272E-03
  0.212500006      0.187500000      -3.19040418E-02   2.35518478E-02   8.28833971E-03
  0.237500012      0.187500000      -3.74631509E-02   2.37702467E-02   8.35178420E-03
  0.262499988      0.187500000      -4.29837033E-02   2.35095341E-02   8.46747030E-03
  0.287499994      0.187500000      -4.83711436E-02   2.28030961E-02   8.63536354E-03
  0.312500000      0.187500000      -5.35365790E-02   2.16790047E-02   8.85604322E-03
  0.337500006      0.187500000      -5.83956614E-02   2.01602615E-02   9.13040154E-03
  0.362499982      0.187500000      -6.28677458E-02   1.82662047E-02   9.45926271E-03
  0.387499988      0.187500000      -6.68754131E-02   1.60146430E-02   9.84305423E-03
  0.412499994      0.187500000      -7.03444928E-02   1.34244114E-02   1.02814026E-02
  0.437500000      0.187500000      -7.32045323E-02   1.05180582E-02   1.07727610E-02
  0.462500006      0.187500000      -7.53896981E-02   7.32446369E-03   1.13140065E-02
  0.487499982      0.187500000      -7.68401474E-02   3.88121768E-03   1.19000962E-02
  0.512499988      0.187500000      -7.75038153E-02   2.36653781E-04   1.25238150E-02
  0.537500024      0.187500000      -7.73384869E-02  -3.54853389E-03   1.31739378E-02
  0.562500000      0.187500000      -7.63144046E-02  -7.39816250E-03   1.38314376E-02
  0.587499976      0.187500000      -7.44173154E-02  -1.12212673E-02   1.44810053E-02
  0.612500012      0.187500000      -7.16516227E-02  -1.49123482E-02   1.51055520E-02
  0.637499988      0.187500000      -6.80439472E-02  -1.83534846E-02   1.56868119E-02
  0.662500024      0.187500000      -6.36464208E-02  -2.14181021E-02   1.62063111E-02
  0.687500000      0.187500000      -5.85392118E-02  -2.39764508E-02   1.66465677E-02
  0.712499976      0.187500000      -5.28322086E-02  -2.59028338E-02   1.69923510E-02
  0.737500012      0.187500000      -4.66649979E-02  -2.70845182E-02   1.72320306E-02
  0.762499988      0.187500000      -4.02048640E-02  -2.74318606E-02   1.73587352E-02
  0.787500024      0.187500000      -3.36421765E-02  -2.68890895E-02   1.73712056E-02
  0.812500000      0.187500000      -2.71830391E-02  -2.54447609E-02   1.72741283E-02
  0.837499976      0.187500000      -2.10391395E-02  -2.31407471E-02   1.70779247E-02
  0.862500012      0.187500000      -1.54154357E-02  -2.00785473E-02   1.67978294E-02
  0.887499988      0.187500000      -1.04967970E-02  -1.64220091E-02   1.64524876E-02
  0.912500024      0.187500000      -6.43532816E-03  -1.23959761E-02   1.60621181E-02
  0.937500000      0.187500000      -3.34044173E-03  -8.28116387E-03   1.56466234E-02
  0.962499976      0.187500000      -1.27383636E-03  -4.40604519E-03   1.52236903E-02
  0.987500012      0.187500000      -2.51134945E-04  -1.13654928E-03   1.48071470E-02
   1.25000002E-02  0.212500006      -4.08318185E-04   2.89517967E-03   9.99660417E-03
   3.75000015E-02  0.212500006      -1.90204079E-03   8.46807472E-03   9.45738051E-03
   6.25000000E-02  0.212500006      -4.62620798E-03   1.35701336E-02   9.02214274E-03
   8.75000060E-02  0.212500006      -8.34776275E-03   1.80378966E-02   8.68036691E-03
  0.112500004      0.212500006      -1.28607303E-02   2.17821244E-02   8.42184573E-03
  0.137500003      0.212500006      -1.79828797E-02   2.47702803E-02   8.23741779E-03
  0.162500009      0.212500006      -2.35525854E-02   2.70095170E-02   8.11932422E-03
  0.187500000      0.212500006      -2.94259470E-02   2.85317060E-02   8.06145277E-03
  0.212500006      0.212500006      -3.54741327E-02   2.93813311E-02   8.05934239E-03
  0.237500012      0.212500006      -4.15808447E-02   2.96064839E-02   8.11016280E-03
  0.262499988      0.212500006      -4.76399809E-02   2.92528886E-02   8.21253844E-03
  0.287499994      0.212500006      -5.35534732E-02   2.83605810E-02   8.36633425E-03
  0.312500000      0.212500006      -5.92293814E-02   2.69627757E-02   8.57233815E-03
  0.337500006      0.212500006      -6.45803213E-02   2.50864327E-02   8.83195084E-03
  0.362499982      0.212500006      -6.95223212E-02   2.27540340E-02   9.14673135E-03
  0.387499988      0.212500006      -7.39741176E-02   1.99862160E-02   9.51803662E-03
  0.412499994      0.212500006      -7.78570324E-02   1.68047771E-02   9.94651671E-03
  0.437500000      0.212500006      -8.10952634E-02   1.32358996E-02   1.04317199E-02
  0.462500006      0.212500006      -8.36167783E-02   9.31324344E-03   1.09716011E-02
  0.487499982      0.212500006      -8.53547007E-02   5.08076651E-03   1.15621407E-02
  0.512499988      0.212500006      -8.62491056E-02   5.95128862E-04   1.21969897E-02
  0.537500024      0.212500006      -8.62490833E-02  -4.07241285E-03   1.28668565E-02
  0.562500000      0.212500006      -8.53154585E-02  -8.83201696E-03   1.35501837E-02
  0.587499976      0.212500006      -8.34239945E-02  -1.35760065E-02   1.42312394E-02
  0.612500012      0.212500006      -8.05691630E-02  -1.81781761E-02   1.48919327E-02
  0.637499988      0.212500006      -7.67685249E-02  -2.24959850E-02   1.55123593E-02
  0.662500024      0.212500006      -7.20670298E-02  -2.63746567E-02   1.60719249E-02