 VARIABLES="X","Y","U","V","P"
 ZONE F=POINT, I=          16 , J=          16
   3.12500000E-02   3.12500000E-02  -4.84671385E-04   4.80655348E-04   3.52588668E-03
   9.37500000E-02   3.12500000E-02  -2.16999324E-03   1.19532726E-03   3.49838473E-03
  0.156250000       3.12500000E-02  -4.87003149E-03   1.49433070E-03   3.51581350E-03
  0.218750000       3.12500000E-02  -8.01167265E-03   1.63759070E-03   3.58881732E-03
  0.281250000       3.12500000E-02  -1.14021525E-02   1.74404657E-03   3.72649473E-03
  0.343750000       3.12500000E-02  -1.49728647E-02   1.81881920E-03   3.94366775E-03
  0.406250000       3.12500000E-02  -1.86112281E-02   1.81269390E-03   4.26074537E-03
  0.468750000       3.12500000E-02  -2.20804624E-02   1.65056100E-03   4.70073801E-03
  0.531250000       3.12500000E-02  -2.49862187E-02   1.24983559E-03   5.28337667E-03
  0.593750000       3.12500000E-02  -2.67848801E-02   5.43772476E-04   6.01494359E-03
  0.656250000       3.12500000E-02  -2.68451348E-02  -4.88598133E-04   6.87334687E-03
  0.718750000       3.12500000E-02  -2.45244280E-02  -1.83749641E-03   7.74956867E-03
  0.781250000       3.12500000E-02  -1.94869079E-02  -3.20587750E-03   8.50749388E-03
  0.843750000       3.12500000E-02  -1.22876763E-02  -3.99965979E-03   8.99044797E-03
  0.906250000       3.12500000E-02  -4.95538395E-03  -3.33920703E-03   9.12249647E-03
  0.968750000       3.12500000E-02  -8.09750054E-04  -8.11756472E-04   9.01830569E-03
   3.12500000E-02   9.37500000E-02  -1.45790912E-03   2.41395691E-03   3.55067709E-03
   9.37500000E-02   9.37500000E-02  -5.52432844E-03   4.99268156E-03   3.52098374E-03
  0.156250000       9.37500000E-02  -1.11748111E-02   6.02452923E-03   3.54206981E-03
  0.218750000       9.37500000E-02  -1.74316466E-02   6.48450432E-03   3.61228408E-03
  0.281250000       9.37500000E-02  -2.39209570E-02   6.75769709E-03   3.73938913E-03
  0.343750000       9.37500000E-02  -3.04191690E-02   6.85731228E-03   3.93829122E-03
  0.406250000       9.37500000E-02  -3.66451517E-02   6.62423950E-03   4.22980916E-03
  0.468750000       9.37500000E-02  -4.21708524E-02   5.82182780E-03   4.63890377E-03
  0.531250000       9.37500000E-02  -4.63943593E-02   4.19731997E-03   5.19016944E-03
  0.593750000       9.37500000E-02  -4.85607684E-02   1.55171403E-03   5.89808635E-03
  0.656250000       9.37500000E-02  -4.78281863E-02  -2.17845105E-03   6.74153958E-03
  0.718750000       9.37500000E-02  -4.34967503E-02  -6.80999644E-03   7.62535445E-03
  0.781250000       9.37500000E-02  -3.52686942E-02  -1.15102110E-02   8.40385817E-03
  0.843750000       9.37500000E-02  -2.36770250E-02  -1.44985458E-02   8.90398491E-03
  0.906250000       9.37500000E-02  -1.10355923E-02  -1.28270509E-02   9.03588533E-03
  0.968750000       9.37500000E-02  -2.44511827E-03  -4.07084869E-03   8.90595745E-03
   3.12500000E-02  0.156250000      -2.00699968E-03   5.86871523E-03   3.49221565E-03
   9.37500000E-02  0.156250000      -7.36242067E-03   1.09371599E-02   3.45184747E-03
  0.156250000      0.156250000      -1.44943632E-02   1.28384177E-02   3.46410717E-03
  0.218750000      0.156250000      -2.22080275E-02   1.36191687E-02   3.51765426E-03
  0.281250000      0.156250000      -3.00915372E-02   1.39767285E-02   3.61710042E-03
  0.343750000      0.156250000      -3.79037671E-02   1.39328586E-02   3.77635518E-03
  0.406250000      0.156250000      -4.53533083E-02   1.32117020E-02   4.01724782E-03
  0.468750000      0.156250000      -5.20102158E-02   1.14074945E-02   4.36953083E-03
  0.531250000      0.156250000      -5.72736263E-02   8.09144881E-03   4.86834766E-03
  0.593750000      0.156250000      -6.03819937E-02   2.92667560E-03   5.54484501E-03
  0.656250000      0.156250000      -6.04740642E-02  -4.19919984E-03   6.40679477E-03
  0.718750000      0.156250000      -5.66239432E-02  -1.29765868E-02   7.35802017E-03
  0.781250000      0.156250000      -4.79701199E-02  -2.22323909E-02   8.24073330E-03
  0.843750000      0.156250000      -3.43319885E-02  -2.90143117E-02   8.83254874E-03
  0.906250000      0.156250000      -1.76119283E-02  -2.76818611E-02   8.97646602E-03
  0.968750000      0.156250000      -4.45358828E-03  -1.09727224E-02   8.78024101E-03
   3.12500000E-02  0.218750000      -2.24131462E-03   1.01077966E-02   3.30500212E-03
   9.37500000E-02  0.218750000      -8.17156490E-03   1.79633200E-02   3.25334142E-03
  0.156250000      0.218750000      -1.59941968E-02   2.07454972E-02   3.24770855E-03
  0.218750000      0.218750000      -2.44207308E-02   2.18335800E-02   3.27193784E-03
  0.281250000      0.218750000      -3.30758318E-02   2.22857352E-02   3.32777551E-03
  0.343750000      0.218750000      -4.18016538E-02   2.21508034E-02   3.42689548E-03
  0.406250000      0.218750000      -5.04149273E-02   2.10497193E-02   3.59074795E-03
  0.468750000      0.218750000      -5.85944802E-02   1.84030440E-02   3.85323958E-03
  0.531250000      0.218750000      -6.58001900E-02   1.35653354E-02   4.26148716E-03
  0.593750000      0.218750000      -7.12097138E-02   5.97314537E-03   4.86878725E-03
  0.656250000      0.218750000      -7.36856833E-02  -4.67424514E-03   5.72330970E-03
  0.718750000      0.218750000      -7.17341751E-02  -1.82999857E-02   6.76193135E-03
  0.781250000      0.218750000      -6.36727810E-02  -3.36220488E-02   7.81705603E-03
  0.843750000      0.218750000      -4.84944321E-02  -4.64403182E-02   8.60508345E-03
  0.906250000      0.218750000      -2.75206640E-02  -4.79500480E-02   8.84500705E-03
  0.968750000      0.218750000      -7.97882397E-03  -2.34053954E-02   8.60940292E-03
   3.12500000E-02  0.281250000      -2.28871638E-03   1.46297961E-02   2.97008362E-03
   9.37500000E-02  0.281250000      -8.37742351E-03   2.54426934E-02   2.90701119E-03
  0.156250000      0.281250000      -1.64567418E-02   2.91502848E-02   2.87678884E-03
  0.218750000      0.281250000      -2.52343863E-02   3.06184217E-02   2.86071328E-03
  0.281250000      0.281250000      -3.44265439E-02   3.13379243E-02   2.85712234E-03
  0.343750000      0.281250000      -4.40370105E-02   3.14297304E-02   2.87266588E-03
  0.406250000      0.281250000      -5.40788844E-02   3.04260552E-02   2.92354892E-03
  0.468750000      0.281250000      -6.43847957E-02   2.75172703E-02   3.04190535E-03
  0.531250000      0.281250000      -7.43965060E-02   2.16777921E-02   3.28303408E-03
  0.593750000      0.281250000      -8.29774141E-02   1.18632959E-02   3.72591708E-03
  0.656250000      0.281250000      -8.83653909E-02  -2.68680858E-03   4.45631705E-03
  0.718750000      0.281250000      -8.84393305E-02  -2.21512690E-02   5.52989123E-03
  0.781250000      0.281250000      -8.09840113E-02  -4.52747270E-02   6.79810997E-03
  0.843750000      0.281250000      -6.44581318E-02  -6.64806366E-02   7.92880729E-03
  0.906250000      0.281250000      -3.95280048E-02  -7.38039017E-02   8.45892727E-03
  0.968750000      0.281250000      -1.26163252E-02  -4.39974852E-02   8.27962998E-03
   3.12500000E-02  0.343750000      -2.22217757E-03   1.91340186E-02   2.48787482E-03
   9.37500000E-02  0.343750000      -8.20837356E-03   3.29989977E-02   2.41246680E-03
  0.156250000      0.343750000      -1.62544847E-02   3.77055705E-02   2.35144864E-03
  0.218750000      0.343750000      -2.51134597E-02   3.96897718E-02   2.28377990E-03
  0.281250000      0.343750000      -3.46220583E-02   4.09624726E-02   2.20211921E-03
  0.343750000      0.343750000      -4.49817702E-02   4.17764857E-02   2.10259296E-03
  0.406250000      0.343750000      -5.64156398E-02   4.15624455E-02   1.98667077E-03
  0.468750000      0.343750000      -6.88479245E-02   3.91324200E-02   1.87285373E-03
  0.531250000      0.343750000      -8.15555900E-02   3.28003503E-02   1.81701221E-03
  0.593750000      0.343750000      -9.29631293E-02   2.07510740E-02   1.92949432E-03
  0.656250000      0.343750000     -0.100772351       1.64637505E-03   2.35868851E-03
  0.718750000      0.343750000     -0.102436125      -2.47227624E-02   3.31035582E-03
  0.781250000      0.343750000      -9.55711603E-02  -5.70005663E-02   4.77768760E-03
  0.843750000      0.343750000      -7.83848017E-02  -8.84458870E-02   6.40215073E-03
  0.906250000      0.343750000      -5.06172031E-02 -0.104517147       7.48519786E-03
  0.968750000      0.343750000      -1.70950778E-02  -7.37027600E-02   7.51829753E-03
   3.12500000E-02  0.406250000      -2.08021607E-03   2.34311000E-02   1.87234045E-03
   9.37500000E-02  0.406250000      -7.77431251E-03   4.03710306E-02   1.78326829E-03
  0.156250000      0.406250000      -1.55269615E-02   4.61223535E-02   1.68567034E-03
  0.218750000      0.406250000      -2.41329484E-02   4.87323850E-02   1.55498367E-03
  0.281250000      0.406250000      -3.35231908E-02   5.08189127E-02   1.37440558E-03
  0.343750000      0.406250000      -4.40527126E-02   5.28162047E-02   1.12192507E-03
  0.406250000      0.406250000      -5.60884215E-02   5.40062711E-02   7.71710998E-04
  0.468750000      0.406250000      -6.95969462E-02   5.26499972E-02   3.13553086E-04
  0.531250000      0.406250000      -8.37547705E-02   4.61743586E-02  -2.04256110E-04
  0.593750000      0.406250000      -9.67870504E-02   3.18468809E-02  -6.27163798E-04
  0.656250000      0.406250000     -0.106174976       7.77969137E-03  -7.00210279E-04
  0.718750000      0.406250000     -0.109234303      -2.61008851E-02  -9.97075622E-05
  0.781250000      0.406250000     -0.103627235      -6.80637062E-02   1.48179510E-03
  0.843750000      0.406250000      -8.72651264E-02 -0.110902637       3.68967932E-03
  0.906250000      0.406250000      -5.86095378E-02 -0.138457417       5.56215970E-03
  0.968750000      0.406250000      -2.05419064E-02 -0.111331463       5.99510688E-03
   3.12500000E-02  0.468750000      -1.89903297E-03   2.74062268E-02   1.14736799E-03
   9.37500000E-02  0.468750000      -7.16892304E-03   4.73515056E-02   1.04437198E-03
  0.156250000      0.468750000      -1.43664237E-02   5.40854372E-02   9.07942303E-04
  0.218750000      0.468750000      -2.22709216E-02   5.72779104E-02   7.07722851E-04
  0.281250000      0.468750000      -3.08202282E-02   6.02172390E-02   4.13338828E-04
  0.343750000      0.468750000      -4.04120311E-02   6.35506362E-02  -2.22489343E-05
  0.406250000      0.468750000      -5.14855571E-02   6.63999021E-02  -6.63069950E-04
  0.468750000      0.468750000      -6.41420111E-02   6.64470494E-02  -1.56208628E-03
  0.531250000      0.468750000      -7.77959228E-02   6.02203570E-02  -2.68930476E-03
  0.593750000      0.468750000      -9.09701511E-02   4.40424792E-02  -3.83985648E-03
  0.656250000      0.468750000     -0.101326160       1.53648164E-02  -4.61406400E-03
  0.718750000      0.468750000     -0.106055230      -2.58611403E-02  -4.57268255E-03
  0.781250000      0.468750000     -0.102875352      -7.70558119E-02  -3.02595831E-03
  0.843750000      0.468750000      -8.93876106E-02 -0.131728530      -2.53998267E-04
  0.906250000      0.468750000      -6.24104291E-02 -0.173235357       2.55076098E-03
  0.968750000      0.468750000      -2.25722212E-02 -0.154436588       3.56796640E-03
   3.12500000E-02  0.531250000      -1.74308300E-03   3.10451016E-02   3.43099731E-04
   9.37500000E-02  0.531250000      -6.56386837E-03   5.37969619E-02   2.29517129E-04
  0.156250000      0.531250000      -1.29880905E-02   6.12574853E-02   6.18808190E-05
  0.218750000      0.531250000      -1.97000206E-02   6.47228882E-02  -1.99605201E-04
  0.281250000      0.531250000      -2.65515465E-02   6.81799501E-02  -6.01916574E-04
  0.343750000      0.531250000      -3.38729918E-02   7.25151747E-02  -1.21974479E-03
  0.406250000      0.531250000      -4.21236046E-02   7.67807961E-02  -2.15900596E-03
  0.468750000      0.531250000      -5.16550280E-02   7.82819539E-02  -3.52310669E-03
  0.531250000      0.531250000      -6.24648519E-02   7.28822947E-02  -5.31514455E-03
  0.593750000      0.531250000      -7.39020705E-02   5.60282692E-02  -7.29672331E-03
  0.656250000      0.531250000      -8.43634158E-02   2.42336392E-02  -8.91798269E-03
  0.718750000      0.531250000      -9.12252665E-02  -2.31028907E-02  -9.52209719E-03
  0.781250000      0.531250000      -9.20390487E-02  -8.21466595E-02  -8.22541118E-03
  0.843750000      0.531250000      -8.38232487E-02 -0.148311138      -5.03148604E-03
  0.906250000      0.531250000      -6.14957884E-02 -0.205930755      -1.26454351E-03
  0.968750000      0.531250000      -2.30269395E-02 -0.200027764       4.96909488E-04
   3.12500000E-02  0.593750000      -1.73243578E-03   3.45178545E-02  -5.10494050E-04
   9.37500000E-02  0.593750000      -6.28222339E-03   5.96895069E-02  -6.24323438E-04
  0.156250000      0.593750000      -1.18434932E-02   6.73473477E-02  -7.97599321E-04
  0.218750000      0.593750000      -1.69656519E-02   7.04686940E-02  -1.08673645E-03
  0.281250000      0.593750000      -2.14043297E-02   7.37319365E-02  -1.55730359E-03
  0.343750000      0.593750000      -2.53806245E-02   7.82752633E-02  -2.30801757E-03
  0.406250000      0.593750000      -2.93141082E-02   8.32258612E-02  -3.47866653E-03
  0.468750000      0.593750000      -3.37630808E-02   8.58442187E-02  -5.21654822E-03
  0.531250000      0.593750000      -3.93660963E-02   8.17640722E-02  -7.56802876E-03
  0.593750000      0.593750000      -4.66567054E-02   6.59076571E-02  -1.03034116E-02
  0.656250000      0.593750000      -5.55611625E-02   3.37532423E-02  -1.27746444E-02
  0.718750000      0.593750000      -6.44225627E-02  -1.68682672E-02  -1.40227778E-02
  0.781250000      0.593750000      -7.05834925E-02  -8.13792422E-02  -1.31798256E-02
  0.843750000      0.593750000      -7.01179057E-02 -0.157736838      -9.79447179E-03
  0.906250000      0.593750000      -5.56245968E-02 -0.233306646      -5.10670245E-03
  0.968750000      0.593750000      -2.18409561E-02 -0.244890422      -2.44254200E-03
   3.12500000E-02  0.656250000      -2.07185210E-03   3.83194089E-02  -1.39523426E-03
   9.37500000E-02  0.656250000      -6.84555806E-03   6.52061850E-02  -1.48705952E-03
  0.156250000      0.656250000      -1.16268545E-02   7.21699670E-02  -1.61424617E-03
  0.218750000      0.656250000      -1.49158239E-02   7.40582272E-02  -1.86630606E-03
  0.281250000      0.656250000      -1.65187381E-02   7.61904866E-02  -2.33090110E-03
  0.343750000      0.656250000      -1.66288745E-02   7.99156576E-02  -3.12161096E-03
  0.406250000      0.656250000      -1.56111484E-02   8.45195204E-02  -4.39153984E-03
  0.468750000      0.656250000      -1.40583953E-02   8.74698013E-02  -6.30381657E-03
  0.531250000      0.656250000      -1.28687080E-02   8.45777988E-02  -8.93398188E-03
  0.593750000      0.656250000      -1.33418264E-02   7.08843768E-02  -1.21013010E-02
  0.656250000      0.656250000      -1.73739865E-02   4.17382978E-02  -1.51870530E-02
  0.718750000      0.656250000      -2.64217332E-02  -6.92255097E-03  -1.70088299E-02
  0.781250000      0.656250000      -3.86225544E-02  -7.29463249E-02  -1.67175867E-02
  0.843750000      0.656250000      -4.81333844E-02 -0.157112658      -1.34155303E-02
  0.906250000      0.656250000      -4.45753038E-02 -0.251974761      -7.77518470E-03
  0.968750000      0.656250000      -1.89235471E-02 -0.285653859      -3.91861005E-03
   3.12500000E-02  0.718750000      -3.09791137E-03   4.34860885E-02  -2.32638698E-03
   9.37500000E-02  0.718750000      -9.00395215E-03   7.07130954E-02  -2.35043233E-03
  0.156250000      0.718750000      -1.31555256E-02   7.55913705E-02  -2.34288257E-03
  0.218750000      0.718750000      -1.43896984E-02   7.51591772E-02  -2.46259850E-03
  0.281250000      0.718750000      -1.29144210E-02   7.52210915E-02  -2.82740383E-03
  0.343750000      0.718750000      -9.09602083E-03   7.71857426E-02  -3.55311669E-03
  0.406250000      0.718750000      -3.30147520E-03   8.04507062E-02  -4.77924431E-03
  0.468750000      0.718750000       3.93392192E-03   8.27673674E-02  -6.63515460E-03
  0.531250000      0.718750000       1.16370674E-02   8.04057568E-02  -9.17199161E-03
  0.593750000      0.718750000       1.82867795E-02   6.88973367E-02  -1.22825103E-02
  0.656250000      0.718750000       2.17545256E-02   4.43041697E-02  -1.54203651E-02
  0.718750000      0.718750000       1.77454613E-02   3.57790478E-03  -1.75557323E-02
  0.781250000      0.718750000       2.22363835E-03  -5.57205044E-02  -1.78302489E-02
  0.843750000      0.718750000      -1.79833267E-02 -0.144622862      -1.48632545E-02
  0.906250000      0.718750000      -2.75418274E-02 -0.258471072      -7.80322682E-03
  0.968750000      0.718750000      -1.38890920E-02 -0.318470478      -1.94327289E-03
   3.12500000E-02  0.781250000      -5.34137059E-03   5.19216955E-02  -3.40547133E-03
   9.37500000E-02  0.781250000      -1.36395069E-02   7.64740407E-02  -3.24824639E-03
  0.156250000      0.781250000      -1.68760046E-02   7.72119313E-02  -2.95648421E-03
  0.218750000      0.781250000      -1.54067241E-02   7.33001083E-02  -2.82140682E-03
  0.281250000      0.781250000      -1.03950799E-02   7.05937073E-02  -2.99870595E-03
  0.343750000      0.781250000      -2.50306400E-03   7.01071471E-02  -3.58525198E-03
  0.406250000      0.781250000       7.96406996E-03   7.12753981E-02  -4.66063805E-03
  0.468750000      0.781250000       2.03585140E-02   7.23225325E-02  -6.34058379E-03
  0.531250000      0.781250000       3.34311128E-02   7.00844526E-02  -8.70570354E-03
  0.593750000      0.781250000       4.51648086E-02   6.08424433E-02  -1.15831615E-02
  0.656250000      0.781250000       5.24978228E-02   4.15609479E-02  -1.43880630E-02
  0.718750000      0.781250000       5.17219082E-02   1.11025665E-02  -1.61270630E-02
  0.781250000      0.781250000       4.04558592E-02  -3.64677310E-02  -1.60599910E-02
  0.843750000      0.781250000       1.99171454E-02 -0.123146877      -1.25815524E-02
  0.906250000      0.781250000      -1.49161508E-03 -0.249001741      -3.52896121E-03
  0.968750000      0.781250000      -5.36828721E-03 -0.337737024       6.57326821E-03
   3.12500000E-02  0.843750000      -9.27187409E-03   6.65305927E-02  -4.99557424E-03
   9.37500000E-02  0.843750000      -2.04042718E-02   8.12863931E-02  -4.26546019E-03
  0.156250000      0.843750000      -2.01340821E-02   7.53571093E-02  -3.42322444E-03
  0.218750000      0.843750000      -1.36082172E-02   6.71535730E-02  -2.89010047E-03
  0.281250000      0.843750000      -3.40763899E-03   6.15248829E-02  -2.83745583E-03
  0.343750000      0.843750000       9.34071466E-03   5.85354418E-02  -3.23349447E-03
  0.406250000      0.843750000       2.42759921E-02   5.74466810E-02  -4.12293756E-03
  0.468750000      0.843750000       4.10286933E-02   5.70067167E-02  -5.64042199E-03
  0.531250000      0.843750000       5.84565401E-02   5.49009889E-02  -7.83280842E-03
  0.593750000      0.843750000       7.42261708E-02   4.85199988E-02  -1.04976082E-02
  0.656250000      0.843750000       8.49898010E-02   3.57783660E-02  -1.30168293E-02
  0.718750000      0.843750000       8.74124542E-02   1.52227953E-02  -1.43861212E-02
  0.781250000      0.843750000       8.12884122E-02  -2.32211761E-02  -1.35875288E-02
  0.843750000      0.843750000       6.62321746E-02 -0.100828767      -6.80901855E-03
  0.906250000      0.843750000       3.87945436E-02 -0.222508922       8.88356846E-03
  0.968750000      0.843750000       1.07639749E-02 -0.332355142       2.74036303E-02
   3.12500000E-02  0.906250000      -1.10841328E-02   8.68816972E-02  -8.31215922E-03
   9.37500000E-02  0.906250000      -1.60963461E-02   7.70692378E-02  -5.30023221E-03
  0.156250000      0.906250000      -8.03465955E-05   6.32774383E-02  -3.49691301E-03
  0.218750000      0.906250000       1.98489595E-02   5.27695119E-02  -2.53298786E-03
  0.281250000      0.906250000       3.96509022E-02   4.59002778E-02  -2.26498954E-03
  0.343750000      0.906250000       5.94226494E-02   4.16359454E-02  -2.51989206E-03
  0.406250000      0.906250000       7.97318742E-02   3.90988737E-02  -3.31175979E-03
  0.468750000      0.906250000      0.100858502       3.74720059E-02  -4.73480020E-03
  0.531250000      0.906250000      0.122295752       3.55649404E-02  -6.82758261E-03
  0.593750000      0.906250000      0.142399490       3.19722779E-02  -9.37053375E-03
  0.656250000      0.906250000      0.158743203       2.52017006E-02  -1.17091313E-02
  0.718750000      0.906250000      0.170002744       1.20923109E-02  -1.27616134E-02
  0.781250000      0.906250000      0.174713179      -1.87102258E-02  -9.73119959E-03
  0.843750000      0.906250000      0.162533715      -7.81444162E-02   3.68280616E-03
  0.906250000      0.906250000      0.117107101     -0.172374666       3.24909948E-02
  0.968750000      0.906250000       4.21078131E-02 -0.279500574       7.02246130E-02
   3.12500000E-02  0.968750000       4.89799678E-02   4.89816293E-02  -1.57068521E-02
   9.37500000E-02  0.968750000      0.133454829       3.54971327E-02  -4.13402636E-03
  0.156250000      0.968750000      0.195613116       2.66653560E-02  -1.27595046E-03
  0.218750000      0.968750000      0.243665904       2.13910807E-02  -5.87238290E-04
  0.281250000      0.968750000      0.283094972       1.80409867E-02  -6.39019883E-04
  0.343750000      0.968750000      0.316973269       1.58398487E-02  -1.12733780E-03
  0.406250000      0.968750000      0.347182453       1.43717453E-02  -2.07261997E-03
  0.468750000      0.968750000      0.374900341       1.33489724E-02  -3.58353439E-03
  0.531250000      0.968750000      0.400694013       1.24487458E-02  -5.70311025E-03
  0.593750000      0.968750000      0.424401373       1.12645859E-02  -8.19553249E-03
  0.656250000      0.968750000      0.444802880       9.14539862E-03  -1.02493726E-02
  0.718750000      0.968750000      0.457801521       3.86464922E-03  -9.58070066E-03
  0.781250000      0.968750000      0.452113777      -9.53809544E-03  -9.81440651E-04
  0.843750000      0.968750000      0.409748256      -3.28105949E-02   2.04458907E-02
  0.906250000      0.968750000      0.307171047      -6.97480440E-02   6.24879673E-02
  0.968750000      0.968750000      0.118706688     -0.118701026      0.125763312    
