 VARIABLES="X","Y","U","V","P"
 ZONE F=POINT, I=          64 , J=          64
   7.81250000E-03   7.81250000E-03   3.41169616E-05  -3.50494884E-05   1.94158200E-02
   2.34375000E-02   7.81250000E-03   1.36325587E-04  -6.93496040E-05   1.94157362E-02
   3.90625000E-02   7.81250000E-03   2.71593017E-04  -6.84304832E-05   1.93982869E-02
   5.46875000E-02   7.81250000E-03   3.86487780E-04  -4.89701015E-05   1.93632971E-02
   7.03125000E-02   7.81250000E-03   4.55672736E-04  -2.27097589E-05   1.93132237E-02
   8.59375000E-02   7.81250000E-03   4.71468840E-04   4.44122225E-06   1.92506593E-02
  0.101562500       7.81250000E-03   4.34278889E-04   3.03058878E-05   1.91775430E-02
  0.117187500       7.81250000E-03   3.46808782E-04   5.47519085E-05   1.90950818E-02
  0.132812500       7.81250000E-03   2.11002058E-04   7.86823221E-05   1.90039016E-02
  0.148437500       7.81250000E-03   2.68401272E-05   1.03153347E-04   1.89043395E-02
  0.164062500       7.81250000E-03  -2.07710487E-04   1.29118765E-04   1.87965706E-02
  0.179687500       7.81250000E-03  -4.96363849E-04   1.57313421E-04   1.86808668E-02
  0.195312500       7.81250000E-03  -8.43980699E-04   1.88145903E-04   1.85576472E-02
  0.210937500       7.81250000E-03  -1.25596207E-03   2.21743932E-04   1.84275806E-02
  0.226562500       7.81250000E-03  -1.73774699E-03   2.58023647E-04   1.82916354E-02
  0.242187500       7.81250000E-03  -2.29443470E-03   2.96727056E-04   1.81511343E-02
  0.257812500       7.81250000E-03  -2.93046981E-03   3.37457692E-04   1.80078000E-02
  0.273437500       7.81250000E-03  -3.64936888E-03   3.79683392E-04   1.78638194E-02
  0.289062500       7.81250000E-03  -4.45344672E-03   4.22733399E-04   1.77218802E-02
  0.304687500       7.81250000E-03  -5.34352846E-03   4.65789955E-04   1.75852291E-02
  0.320312500       7.81250000E-03  -6.31865207E-03   5.07874414E-04   1.74577013E-02
  0.335937500       7.81250000E-03  -7.37574697E-03   5.47864998E-04   1.73437297E-02
  0.351562500       7.81250000E-03  -8.50934349E-03   5.84481459E-04   1.72483213E-02
  0.367187500       7.81250000E-03  -9.71130375E-03   6.16326288E-04   1.71770193E-02
  0.382812500       7.81250000E-03  -1.09705962E-02   6.41904538E-04   1.71358027E-02
  0.398437500       7.81250000E-03  -1.22731365E-02   6.59659447E-04   1.71309486E-02
  0.414062500       7.81250000E-03  -1.36017045E-02   6.68004621E-04   1.71688721E-02
  0.429687500       7.81250000E-03  -1.49359424E-02   6.65390166E-04   1.72558930E-02
  0.445312500       7.81250000E-03  -1.62524432E-02   6.50312984E-04   1.73979755E-02
  0.460937500       7.81250000E-03  -1.75249241E-02   6.21395826E-04   1.76004246E-02
  0.476562500       7.81250000E-03  -1.87244974E-02   5.77401603E-04   1.78675465E-02
  0.492187500       7.81250000E-03  -1.98199674E-02   5.17275883E-04   1.82022769E-02
  0.507812500       7.81250000E-03  -2.07782462E-02   4.40167612E-04   1.86057687E-02
  0.523437500       7.81250000E-03  -2.15648040E-02   3.45485954E-04   1.90769471E-02
  0.539062500       7.81250000E-03  -2.21444406E-02   2.33145402E-04   1.96119882E-02
  0.554687500       7.81250000E-03  -2.24832799E-02   1.04573934E-04   2.02036537E-02
  0.570312500       7.81250000E-03  -2.25557573E-02  -3.33539429E-05   2.08404548E-02
  0.585937500       7.81250000E-03  -2.23420821E-02  -1.81739364E-04   2.15028450E-02
  0.601562500       7.81250000E-03  -2.18198895E-02  -3.42046696E-04   2.21750997E-02
  0.617187500       7.81250000E-03  -2.09704693E-02  -5.09144797E-04   2.28400677E-02
  0.632812500       7.81250000E-03  -1.97867062E-02  -6.76570344E-04   2.34781839E-02
  0.648437500       7.81250000E-03  -1.82750821E-02  -8.37189844E-04   2.40686852E-02
  0.664062500       7.81250000E-03  -1.64568909E-02  -9.83311213E-04   2.45908089E-02
  0.679687500       7.81250000E-03  -1.43691525E-02  -1.10688736E-03   2.50251628E-02
  0.695312500       7.81250000E-03  -1.20649543E-02  -1.19990006E-03   2.53552366E-02
  0.710937500       7.81250000E-03  -9.61284060E-03  -1.25491130E-03   2.55688746E-02
  0.726562500       7.81250000E-03  -7.09494157E-03  -1.26576528E-03   2.56596562E-02
  0.742187500       7.81250000E-03  -4.60362155E-03  -1.22837140E-03   2.56278887E-02
  0.757812500       7.81250000E-03  -2.23675463E-03  -1.14131707E-03   2.54811030E-02
  0.773437500       7.81250000E-03  -9.24785854E-05  -1.00575201E-03   2.52339002E-02
  0.789062500       7.81250000E-03   1.73411774E-03  -8.23579438E-04   2.49101277E-02
  0.804687500       7.81250000E-03   3.17416573E-03  -6.19129045E-04   2.45353915E-02
  0.820312500       7.81250000E-03   4.19827271E-03  -4.07553249E-04   2.41349731E-02
  0.835937500       7.81250000E-03   4.80789598E-03  -2.04547890E-04   2.37335414E-02
  0.851562500       7.81250000E-03   5.03310375E-03  -2.30408041E-05   2.33523361E-02
  0.867187500       7.81250000E-03   4.92534274E-03   1.28506304E-04   2.30078641E-02
  0.882812500       7.81250000E-03   4.54685930E-03   2.47758435E-04   2.27113552E-02
  0.898437500       7.81250000E-03   3.96155845E-03   3.35393939E-04   2.24684738E-02
  0.914062500       7.81250000E-03   3.23195988E-03   3.92114656E-04   2.22816449E-02
  0.929687500       7.81250000E-03   2.42116139E-03   4.16635448E-04   2.21510902E-02
  0.945312500       7.81250000E-03   1.59914908E-03   4.03354847E-04   2.20753234E-02
  0.960937500       7.81250000E-03   8.53008591E-04   3.40776867E-04   2.20504217E-02
  0.976562500       7.81250000E-03   2.94860278E-04   2.15372711E-04   2.20668875E-02
  0.992187500       7.81250000E-03   3.92456677E-05   3.86191277E-05   2.21026745E-02
   7.81250000E-03   2.34375000E-02   6.85586347E-05  -1.39918819E-04   1.94160454E-02
   2.34375000E-02   2.34375000E-02   2.43733230E-04  -2.46900920E-04   1.94156710E-02
   3.90625000E-02   2.34375000E-02   4.38119576E-04  -2.26214615E-04   1.93986148E-02
   5.46875000E-02   2.34375000E-02   5.63325360E-04  -1.36949660E-04   1.93661787E-02
   7.03125000E-02   2.34375000E-02   5.73526951E-04  -1.97510526E-05   1.93202533E-02
   8.59375000E-02   2.34375000E-02   4.49982472E-04   1.03642051E-04   1.92626920E-02
  0.101562500       2.34375000E-02   1.88198595E-04   2.24548057E-04   1.91949792E-02
  0.117187500       2.34375000E-02  -2.11210790E-04   3.41928913E-04   1.91181339E-02
  0.132812500       2.34375000E-02  -7.48087652E-04   4.58821276E-04   1.90327205E-02
  0.148437500       2.34375000E-02  -1.42554822E-03   5.79367450E-04   1.89391635E-02
  0.164062500       2.34375000E-02  -2.25053215E-03   7.07274186E-04   1.88377462E-02
  0.179687500       2.34375000E-02  -3.23297153E-03   8.45216389E-04   1.87287927E-02
  0.195312500       2.34375000E-02  -4.38454142E-03   9.94538306E-04   1.86127424E-02
  0.210937500       2.34375000E-02  -5.71731478E-03   1.15536584E-03   1.84902418E-02
  0.226562500       2.34375000E-02  -7.24252407E-03   1.32682349E-03   1.83621757E-02
  0.242187500       2.34375000E-02  -8.96950252E-03   1.50720030E-03   1.82297509E-02
  0.257812500       2.34375000E-02  -1.09047629E-02   1.69408601E-03   1.80945378E-02
  0.273437500       2.34375000E-02  -1.30512230E-02   1.88442948E-03   1.79585256E-02
  0.289062500       2.34375000E-02  -1.54074784E-02   2.07455433E-03   1.78241860E-02
  0.304687500       2.34375000E-02  -1.79671384E-02   2.26017553E-03   1.76945180E-02
  0.320312500       2.34375000E-02  -2.07182355E-02   2.43640342E-03   1.75730996E-02
  0.335937500       2.34375000E-02  -2.36427169E-02   2.59783864E-03   1.74640901E-02
  0.351562500       2.34375000E-02  -2.67160758E-02   2.73862528E-03   1.73722282E-02
  0.367187500       2.34375000E-02  -2.99071558E-02   2.85261218E-03   1.73027962E-02
  0.382812500       2.34375000E-02  -3.31781395E-02   2.93350336E-03   1.72615219E-02
  0.398437500       2.34375000E-02  -3.64847742E-02   2.97503662E-03   1.72544681E-02
  0.414062500       2.34375000E-02  -3.97767611E-02   2.97115720E-03   1.72878820E-02
  0.429687500       2.34375000E-02  -4.29983996E-02   2.91622849E-03   1.73679441E-02
  0.445312500       2.34375000E-02  -4.60893959E-02   2.80518574E-03   1.75005700E-02
  0.460937500       2.34375000E-02  -4.89858426E-02   2.63372785E-03   1.76910385E-02
  0.476562500       2.34375000E-02  -5.16213551E-02   2.39843363E-03   1.79437250E-02
  0.492187500       2.34375000E-02  -5.39283380E-02   2.09693937E-03   1.82616860E-02
  0.507812500       2.34375000E-02  -5.58394827E-02   1.72807416E-03   1.86462998E-02
  0.523437500       2.34375000E-02  -5.72895035E-02   1.29215384E-03   1.90968513E-02
  0.539062500       2.34375000E-02  -5.82173802E-02   7.91756902E-04   1.96101572E-02
  0.554687500       2.34375000E-02  -5.85691929E-02   2.34121151E-04   2.01803278E-02
  0.570312500       2.34375000E-02  -5.83017617E-02  -3.60649690E-04   2.07932554E-02
  0.585937500       2.34375000E-02  -5.73717318E-02  -1.00131007E-03   2.14290693E-02
  0.601562500       2.34375000E-02  -5.57421595E-02  -1.67779089E-03   2.20752563E-02
  0.617187500       2.34375000E-02  -5.33992499E-02  -2.36967718E-03   2.27146838E-02
  0.632812500       2.34375000E-02  -5.03504723E-02  -3.05294245E-03   2.33283583E-02
  0.648437500       2.34375000E-02  -4.66263965E-02  -3.70129291E-03   2.38962620E-02
  0.664062500       2.34375000E-02  -4.22822759E-02  -4.28667990E-03   2.43984498E-02
  0.679687500       2.34375000E-02  -3.73990312E-02  -4.78001498E-03   2.48163566E-02
  0.695312500       2.34375000E-02  -3.20834517E-02  -5.15236612E-03   2.51342990E-02
  0.710937500       2.34375000E-02  -2.64674053E-02  -5.37666492E-03   2.53408831E-02
  0.726562500       2.34375000E-02  -2.07056440E-02  -5.42990537E-03   2.54303478E-02
  0.742187500       2.34375000E-02  -1.49717629E-02  -5.29575441E-03   2.54035182E-02
  0.757812500       2.34375000E-02  -9.45186801E-03  -4.96703852E-03   2.52682529E-02
  0.773437500       2.34375000E-02  -4.33546724E-03  -4.44699312E-03   2.50391457E-02
  0.789062500       2.34375000E-02   1.96361332E-04  -3.74692539E-03   2.47371402E-02
  0.804687500       2.34375000E-02   3.96259362E-03  -2.90806126E-03   2.43936721E-02
  0.820312500       2.34375000E-02   6.83989655E-03  -2.02583289E-03   2.40259860E-02
  0.835937500       2.34375000E-02   8.79997015E-03  -1.16154610E-03   2.36574113E-02
  0.851562500       2.34375000E-02   9.87070240E-03  -3.67344881E-04   2.33078338E-02
  0.867187500       2.34375000E-02   1.01310145E-02   3.15098907E-04   2.29921825E-02
  0.882812500       2.34375000E-02   9.70020518E-03   8.65474809E-04   2.27204189E-02
  0.898437500       2.34375000E-02   8.71678628E-03   1.28155516E-03   2.24973895E-02
  0.914062500       2.34375000E-02   7.32568838E-03   1.56193087E-03   2.23247521E-02
  0.929687500       2.34375000E-02   5.67941833E-03   1.69926079E-03   2.22019479E-02
  0.945312500       2.34375000E-02   3.94438859E-03   1.67320471E-03   2.21268423E-02
  0.960937500       2.34375000E-02   2.30991631E-03   1.44700648E-03   2.20957287E-02
  0.976562500       2.34375000E-02   9.92130954E-04   9.80564160E-04   2.21026074E-02
  0.992187500       2.34375000E-02   2.20529400E-04   2.96887534E-04   2.21385062E-02
   7.81250000E-03   3.90625000E-02   6.55823387E-05  -2.76588427E-04   1.94344446E-02
   2.34375000E-02   3.90625000E-02   2.11138831E-04  -4.36669507E-04   1.94323044E-02
   3.90625000E-02   3.90625000E-02   3.21762112E-04  -3.47807130E-04   1.94143243E-02
   5.46875000E-02   3.90625000E-02   2.99745559E-04  -1.24877843E-04   1.93826184E-02
   7.03125000E-02   3.90625000E-02   9.50016984E-05   1.56424227E-04   1.93390120E-02
   8.59375000E-02   3.90625000E-02  -3.14123812E-04   4.53891174E-04   1.92849599E-02
  0.101562500       3.90625000E-02  -9.34670970E-04   7.50448613E-04   1.92215648E-02
  0.117187500       3.90625000E-02  -1.76945853E-03   1.04412599E-03   1.91495474E-02
  0.132812500       3.90625000E-02  -2.82280007E-03   1.34084024E-03   1.90693662E-02
  0.148437500       3.90625000E-02  -4.10279911E-03   1.64891104E-03   1.89813320E-02
  0.164062500       3.90625000E-02  -5.62151568E-03   1.97565486E-03   1.88856889E-02
  0.179687500       3.90625000E-02  -7.39376992E-03   2.32589687E-03   1.87827125E-02
  0.195312500       3.90625000E-02  -9.43529233E-03   2.70146318E-03   1.86727792E-02
  0.210937500       3.90625000E-02  -1.17607452E-02   3.10135144E-03   1.85564384E-02
  0.226562500       3.90625000E-02  -1.43819377E-02   3.52211809E-03   1.84344202E-02
  0.242187500       3.90625000E-02  -1.73062775E-02   3.95829324E-03   1.83077417E-02
  0.257812500       3.90625000E-02  -2.05354355E-02   4.40269988E-03   1.81777533E-02
  0.273437500       3.90625000E-02  -2.40643024E-02   4.84666880E-03   1.80461891E-02
  0.289062500       3.90625000E-02  -2.78801322E-02   5.28017338E-03   1.79152600E-02
  0.304687500       3.90625000E-02  -3.19618732E-02   5.69198746E-03   1.77876912E-02
  0.320312500       3.90625000E-02  -3.62797454E-02   6.06986042E-03   1.76668148E-02
  0.335937500       3.90625000E-02  -4.07950878E-02   6.40077237E-03   1.75565481E-02
  0.351562500       3.90625000E-02  -4.54604551E-02   6.67124800E-03   1.74614396E-02
  0.367187500       3.90625000E-02  -5.02200201E-02   6.86773285E-03   1.73866358E-02
  0.382812500       3.90625000E-02  -5.50102741E-02   6.97697978E-03   1.73377804E-02
  0.398437500       3.90625000E-02  -5.97609840E-02   6.98648766E-03   1.73209403E-02
  0.414062500       3.90625000E-02  -6.43963516E-02   6.88485056E-03   1.73424222E-02
  0.429687500       3.90625000E-02  -6.88363910E-02   6.66216109E-03   1.74085647E-02
  0.445312500       3.90625000E-02  -7.29983896E-02   6.31032139E-03   1.75254941E-02
  0.460937500       3.90625000E-02  -7.67985135E-02   5.82331233E-03   1.76987797E-02
  0.476562500       3.90625000E-02  -8.01534280E-02   5.19745611E-03   1.79331638E-02
  0.492187500       3.90625000E-02  -8.29820633E-02   4.43167659E-03   1.82321221E-02
  0.507812500       3.90625000E-02  -8.52073431E-02   3.52780102E-03   1.85975321E-02
  0.523437500       3.90625000E-02  -8.67581218E-02   2.49110395E-03   1.90293007E-02
  0.539062500       3.90625000E-02  -8.75710100E-02   1.33121538E-03   1.95251200E-02
  0.554687500       3.90625000E-02  -8.75908211E-02   6.36478071E-05   2.00806782E-02
  0.570312500       3.90625000E-02  -8.67639631E-02  -1.28744286E-03   2.06726864E-02
  0.585937500       3.90625000E-02  -8.50493163E-02  -2.72256555E-03   2.12916192E-02
  0.601562500       3.90625000E-02  -8.24304074E-02  -4.20881715E-03   2.19229553E-02
  0.617187500       3.90625000E-02  -7.89111927E-02  -5.70501713E-03   2.25496050E-02
  0.632812500       3.90625000E-02  -7.45173544E-02  -7.16493092E-03   2.31526531E-02
  0.648437500       3.90625000E-02  -6.92974329E-02  -8.53848085E-03   2.37121712E-02
  0.664062500       3.90625000E-02  -6.33240044E-02  -9.77264717E-03   2.42082998E-02
  0.679687500       3.90625000E-02  -5.66946492E-02  -1.08126551E-02   2.46225335E-02
  0.695312500       3.90625000E-02  -4.95324880E-02  -1.16038211E-02   2.49391738E-02
  0.710937500       3.90625000E-02  -4.19861302E-02  -1.20942341E-02   2.51468010E-02
  0.726562500       3.90625000E-02  -3.42287347E-02  -1.22383200E-02   2.52395868E-02
  0.742187500       3.90625000E-02  -2.64556035E-02  -1.20012853E-02   2.52183452E-02
  0.757812500       3.90625000E-02  -1.88798532E-02  -1.13641191E-02   2.50910111E-02
  0.773437500       3.90625000E-02  -1.17249265E-02  -1.03281522E-02   2.48724204E-02
  0.789062500       3.90625000E-02  -5.21224318E-03  -8.91706813E-03   2.45833341E-02
  0.804687500       3.90625000E-02   4.55020578E-04  -7.17802439E-03   2.42502578E-02
  0.820312500       3.90625000E-02   5.06007439E-03  -5.24462294E-03   2.39022188E-02
  0.835937500       3.90625000E-02   8.46194662E-03  -3.31086596E-03   2.35536788E-02
  0.851562500       3.90625000E-02   1.06537193E-02  -1.48645462E-03   2.32242253E-02
  0.867187500       3.90625000E-02   1.16939545E-02   1.27960375E-04   2.29293425E-02
  0.882812500       3.90625000E-02   1.17097590E-02   1.46211626E-03   2.26776041E-02
  0.898437500       3.90625000E-02   1.08784325E-02   2.49430747E-03   2.24721357E-02
  0.914062500       3.90625000E-02   9.39801522E-03   3.21546569E-03   2.23135073E-02
  0.929687500       3.90625000E-02   7.47797871E-03   3.60690127E-03   2.22002231E-02
  0.945312500       3.90625000E-02   5.34424558E-03   3.62925651E-03   2.21297946E-02
  0.960937500       3.90625000E-02   3.24683171E-03   3.21780727E-03   2.20995657E-02
  0.976562500       3.90625000E-02   1.46952469E-03   2.29984336E-03   2.21074726E-02
  0.992187500       3.90625000E-02   3.49408336E-04   8.65065726E-04   2.21534241E-02
   7.81250000E-03   5.46875000E-02   3.71352362E-05  -3.81840218E-04   1.94719583E-02
   2.34375000E-02   5.46875000E-02   7.90513004E-05  -5.24616044E-04   1.94647964E-02
   3.90625000E-02   5.46875000E-02  -2.11329461E-06  -2.95691018E-04   1.94438323E-02
   5.46875000E-02   5.46875000E-02  -2.94312660E-04   1.30868139E-04   1.94111764E-02
   7.03125000E-02   5.46875000E-02  -8.39410117E-04   6.44198502E-04   1.93683952E-02
   8.59375000E-02   5.46875000E-02  -1.65445427E-03   1.18402124E-03   1.93166025E-02
  0.101562500       5.46875000E-02  -2.74665700E-03   1.72686891E-03   1.92564894E-02
  0.117187500       5.46875000E-02  -4.12179762E-03   2.27151369E-03   1.91884488E-02
  0.132812500       5.46875000E-02  -5.78870298E-03   2.82766577E-03   1.91126745E-02
  0.148437500       5.46875000E-02  -7.76042044E-03   3.40787135E-03   1.90292820E-02
  0.164062500       5.46875000E-02  -1.00533105E-02   4.02249675E-03   1.89383514E-02
  0.179687500       5.46875000E-02  -1.26850065E-02   4.67734085E-03   1.88400112E-02
  0.195312500       5.46875000E-02  -1.56719331E-02   5.37294382E-03   1.87344737E-02
  0.210937500       5.46875000E-02  -1.90268643E-02   6.10490143E-03   1.86220799E-02
  0.226562500       5.46875000E-02  -2.27568150E-02   6.86454773E-03   1.85033306E-02
  0.242187500       5.46875000E-02  -2.68613063E-02   7.63972243E-03   1.83789805E-02
  0.257812500       5.46875000E-02  -3.13310325E-02   8.41541123E-03   1.82500724E-02
  0.273437500       5.46875000E-02  -3.61469574E-02   9.17424448E-03   1.81180406E-02
  0.289062500       5.46875000E-02  -4.12797257E-02   9.89694893E-03   1.79848038E-02
  0.304687500       5.46875000E-02  -4.66895141E-02   1.05627580E-02   1.78528316E-02
  0.320312500       5.46875000E-02  -5.23261875E-02   1.11499354E-02   1.77252330E-02
  0.335937500       5.46875000E-02  -5.81298694E-02   1.16363093E-02   1.76057871E-02
  0.351562500       5.46875000E-02  -6.40318394E-02   1.19999107E-02   1.74989849E-02
  0.367187500       5.46875000E-02  -6.99556768E-02   1.22196265E-02   1.74099952E-02
  0.382812500       5.46875000E-02  -7.58187547E-02   1.22758336E-02   1.73446089E-02
  0.398437500       5.46875000E-02  -8.15337598E-02   1.21510159E-02   1.73090994E-02
  0.414062500       5.46875000E-02  -8.70104730E-02   1.18302889E-02   1.73101164E-02
  0.429687500       5.46875000E-02  -9.21574533E-02   1.13018192E-02   1.73543803E-02
  0.445312500       5.46875000E-02  -9.68838260E-02   1.05572436E-02   1.74484961E-02
  0.460937500       5.46875000E-02 -0.101100892       9.59188677E-03   1.75985638E-02
  0.476562500       5.46875000E-02 -0.104723759       8.40502512E-03   1.78098790E-02
  0.492187500       5.46875000E-02 -0.107672781       7.00010266E-03   1.80865079E-02
  0.507812500       5.46875000E-02 -0.109874882       5.38499374E-03   1.84309706E-02
  0.523437500       5.46875000E-02 -0.111264631       3.57253710E-03   1.88438073E-02
  0.539062500       5.46875000E-02 -0.111785367       1.58128957E-03   1.93232931E-02
  0.554687500       5.46875000E-02 -0.111390956      -5.63405338E-04   1.98648814E-02
  0.570312500       5.46875000E-02 -0.110037223      -2.84370244E-03   2.04414539E-02
  0.585937500       5.46875000E-02 -0.107695773      -5.22549031E-03   2.10494921E-02
  0.601562500       5.46875000E-02 -0.104366839      -7.65726063E-03   2.16736682E-02
  0.617187500       5.46875000E-02 -0.100067690      -1.00789070E-02   2.22966075E-02
  0.632812500       5.46875000E-02  -9.48329121E-02  -1.24240872E-02   2.28992216E-02
  0.648437500       5.46875000E-02  -8.87158364E-02  -1.46212205E-02   2.34613679E-02
  0.664062500       5.46875000E-02  -8.17900226E-02  -1.65944844E-02   2.39629038E-02
  0.679687500       5.46875000E-02  -7.41507038E-02  -1.82652324E-02   2.43849438E-02
  0.695312500       5.46875000E-02  -6.59160316E-02  -1.95541754E-02   2.47112922E-02
  0.710937500       5.46875000E-02  -5.72280660E-02  -2.03845799E-02   2.49299519E-02
  0.726562500       5.46875000E-02  -4.82532531E-02  -2.06867754E-02   2.50344649E-02
  0.742187500       5.46875000E-02  -3.91819514E-02  -2.04039849E-02   2.50250511E-02
  0.757812500       5.46875000E-02  -3.02263573E-02  -1.94995310E-02   2.49091852E-02
  0.773437500       5.46875000E-02  -2.16159560E-02  -1.79647990E-02   2.47015506E-02
  0.789062500       5.46875000E-02  -1.35888010E-02  -1.58268847E-02   2.44230889E-02
  0.804687500       5.46875000E-02  -6.37608068E-03  -1.31546585E-02   2.40992866E-02
  0.820312500       5.46875000E-02  -1.83279742E-04  -1.00721130E-02   2.37561688E-02
  0.835937500       5.46875000E-02   4.75352351E-03  -6.82810508E-03   2.34215949E-02
  0.851562500       5.46875000E-02   8.28026794E-03  -3.69356526E-03   2.31045932E-02
  0.867187500       5.46875000E-02   1.04132500E-02  -8.43770802E-04   2.28226911E-02
  0.882812500       5.46875000E-02   1.12491418E-02   1.57671666E-03   2.25863159E-02
  0.898437500       5.46875000E-02   1.09711941E-02   3.48369754E-03   2.23959312E-02
  0.914062500       5.46875000E-02   9.81453992E-03   4.85797971E-03   2.22505704E-02
  0.929687500       5.46875000E-02   8.02701153E-03   5.66687156E-03   2.21477039E-02
  0.945312500       5.46875000E-02   5.87426964E-03   5.85072953E-03   2.20843535E-02
  0.960937500       5.46875000E-02   3.64863267E-03   5.31438831E-03   2.20584366E-02
  0.976562500       5.46875000E-02   1.68669899E-03   3.93752987E-03   2.20701378E-02
  0.992187500       5.46875000E-02   4.08619002E-04   1.62134506E-03   2.21235082E-02
   7.81250000E-03   7.03125000E-02  -8.23699702E-06  -4.13283764E-04   1.95263121E-02
   2.34375000E-02   7.03125000E-02  -1.23806749E-04  -4.25274106E-04   1.95111744E-02
   3.90625000E-02   7.03125000E-02  -4.80643299E-04   3.65567685E-05   1.94852203E-02
   5.46875000E-02   7.03125000E-02  -1.13952940E-03   7.43319280E-04   1.94501020E-02
   7.03125000E-02   7.03125000E-02  -2.12396169E-03   1.55493000E-03   1.94069371E-02
   8.59375000E-02   7.03125000E-02  -3.44145461E-03   2.39952793E-03   1.93563178E-02
  0.101562500       7.03125000E-02  -5.09600434E-03   3.25187412E-03   1.92984603E-02
  0.117187500       7.03125000E-02  -7.09470036E-03   4.11418173E-03   1.92333367E-02
  0.132812500       7.03125000E-02  -9.44986194E-03   5.00098942E-03   1.91607960E-02
  0.148437500       7.03125000E-02  -1.21781975E-02   5.92863001E-03   1.90806463E-02
  0.164062500       7.03125000E-02  -1.52983516E-02   6.90893643E-03   1.89927109E-02
  0.179687500       7.03125000E-02  -1.88278239E-02   7.94635527E-03   1.88968554E-02
  0.195312500       7.03125000E-02  -2.27798838E-02   9.03734751E-03   1.87930241E-02
  0.210937500       7.03125000E-02  -2.71609202E-02   1.01710726E-02   1.86812542E-02
  0.226562500       7.03125000E-02  -3.19683701E-02   1.13305738E-02   1.85617171E-02
  0.242187500       7.03125000E-02  -3.71892303E-02   1.24940546E-02   1.84348151E-02
  0.257812500       7.03125000E-02  -4.27991785E-02   1.36359949E-02   1.83012411E-02
  0.273437500       7.03125000E-02  -4.87621948E-02   1.47280907E-02   1.81621127E-02
  0.289062500       7.03125000E-02  -5.50307035E-02   1.57401413E-02   1.80190615E-02
  0.304687500       7.03125000E-02  -6.15461692E-02   1.66408625E-02   1.78743675E-02
  0.320312500       7.03125000E-02  -6.82400763E-02   1.73987597E-02   1.77310202E-02
  0.335937500       7.03125000E-02  -7.50352740E-02   1.79830156E-02   1.75928101E-02
  0.351562500       7.03125000E-02  -8.18475485E-02   1.83644034E-02   1.74643435E-02
  0.367187500       7.03125000E-02  -8.85874256E-02   1.85161177E-02   1.73510369E-02
  0.382812500       7.03125000E-02  -9.51620117E-02   1.84145644E-02   1.72590427E-02
  0.398437500       7.03125000E-02 -0.101476908       1.80400275E-02   1.71951018E-02
  0.414062500       7.03125000E-02 -0.107438028       1.73771810E-02   1.71663873E-02
  0.429687500       7.03125000E-02 -0.112953275       1.64154563E-02   1.71802640E-02
  0.445312500       7.03125000E-02 -0.117934182       1.51493335E-02   1.72439627E-02
  0.460937500       7.03125000E-02 -0.122297205       1.35784652E-02   1.73642598E-02
  0.476562500       7.03125000E-02 -0.125964969       1.17077250E-02   1.75471120E-02
  0.492187500       7.03125000E-02 -0.128867164       9.54724848E-03   1.77972354E-02
  0.507812500       7.03125000E-02 -0.130941167       7.11251050E-03   1.81178115E-02
  0.523437500       7.03125000E-02 -0.132132471       4.42451891E-03   1.85100790E-02
  0.539062500       7.03125000E-02 -0.132394537       1.51034410E-03   1.89731885E-02
  0.554687500       7.03125000E-02 -0.131687999      -1.59541168E-03   1.94969047E-02
  0.570312500       7.03125000E-02 -0.129983991      -4.87177819E-03   2.00626254E-02
  0.585937500       7.03125000E-02 -0.127270639      -8.25492200E-03   2.06641648E-02
  0.601562500       7.03125000E-02 -0.123552725      -1.16777914E-02   2.12865807E-02
  0.617187500       7.03125000E-02 -0.118848428      -1.50653794E-02   2.19125189E-02
  0.632812500       7.03125000E-02 -0.113189690      -1.83351506E-02   2.25227643E-02
  0.648437500       7.03125000E-02 -0.106623635      -2.13977769E-02   2.30969097E-02
  0.664062500       7.03125000E-02  -9.92142782E-02  -2.41580326E-02   2.36143880E-02
  0.679687500       7.03125000E-02  -9.10443962E-02  -2.65162364E-02   2.40557119E-02
  0.695312500       7.03125000E-02  -8.22174847E-02  -2.83704847E-02   2.44038831E-02
  0.710937500       7.03125000E-02  -7.28596002E-02  -2.96201501E-02   2.46459078E-02
  0.726562500       7.03125000E-02  -6.31209686E-02  -3.01708989E-02   2.47741956E-02
  0.742187500       7.03125000E-02  -5.31770065E-02  -2.99415421E-02   2.47877613E-02
  0.757812500       7.03125000E-02  -4.32281494E-02  -2.88729109E-02   2.46929731E-02
  0.773437500       7.03125000E-02  -3.34977955E-02  -2.69386545E-02   2.45036148E-02
  0.789062500       7.03125000E-02  -2.42269952E-02  -2.41573788E-02   2.42400821E-02
  0.804687500       7.03125000E-02  -1.56646632E-02  -2.06054933E-02   2.39275731E-02
  0.820312500       7.03125000E-02  -8.05398449E-03  -1.64308622E-02   2.35931687E-02
  0.835937500       7.03125000E-02  -1.61226303E-03  -1.18537778E-02   2.32631080E-02
  0.851562500       7.03125000E-02   3.42661864E-03  -7.23922253E-03   2.29561701E-02
  0.867187500       7.03125000E-02   6.90842047E-03  -2.91841105E-03   2.26821937E-02
  0.882812500       7.03125000E-02   8.86552315E-03   8.53023841E-04   2.24538520E-02
  0.898437500       7.03125000E-02   9.45892558E-03   3.88672994E-03   2.22756285E-02
  0.914062500       7.03125000E-02   8.93692859E-03   6.12850394E-03   2.21414883E-02
  0.929687500       7.03125000E-02   7.58331222E-03   7.53247738E-03   2.20481995E-02
  0.945312500       7.03125000E-02   5.69762476E-03   8.01858213E-03   2.19920464E-02
  0.960937500       7.03125000E-02   3.60710453E-03   7.45775551E-03   2.19707526E-02
  0.976562500       7.03125000E-02   1.68882683E-03   5.66945830E-03   2.19850782E-02
  0.992187500       7.03125000E-02   4.11952497E-04   2.44018761E-03   2.20401436E-02
   7.81250000E-03   8.59375000E-02  -6.58994977E-05  -3.41718813E-04   1.95938610E-02
   2.34375000E-02   8.59375000E-02  -3.79741658E-04  -7.32378176E-05   1.95684172E-02
   3.90625000E-02   8.59375000E-02  -1.07635965E-03   7.31505686E-04   1.95358731E-02
   5.46875000E-02   8.59375000E-02  -2.17606034E-03   1.80052035E-03   1.94971282E-02
   7.03125000E-02   8.59375000E-02  -3.67622101E-03   2.97593093E-03   1.94525681E-02
   8.59375000E-02   8.59375000E-02  -5.56947151E-03   4.18292405E-03   1.94021109E-02
  0.101562500       8.59375000E-02  -7.85368960E-03   5.40095661E-03   1.93453766E-02
  0.117187500       8.59375000E-02  -1.05353333E-02   6.63922681E-03   1.92818251E-02
  0.132812500       8.59375000E-02  -1.36284251E-02   7.91807659E-03   1.92108676E-02
  0.148437500       8.59375000E-02  -1.71511546E-02   9.25659854E-03   1.91319287E-02
  0.164062500       8.59375000E-02  -2.11216621E-02   1.06657427E-02   1.90444700E-02
  0.179687500       8.59375000E-02  -2.55539417E-02   1.21455416E-02   1.89479887E-02
  0.195312500       8.59375000E-02  -3.04544196E-02   1.36850905E-02   1.88420489E-02
  0.210937500       8.59375000E-02  -3.58194262E-02   1.52639486E-02   1.87262781E-02
  0.226562500       8.59375000E-02  -4.16335836E-02   1.68540813E-02   1.86004546E-02
  0.242187500       8.59375000E-02  -4.78689782E-02   1.84218083E-02   1.84645690E-02
  0.257812500       8.59375000E-02  -5.44850528E-02   1.99295115E-02   1.83189530E-02
  0.273437500       8.59375000E-02  -6.14290759E-02   2.13371329E-02   1.81644280E-02
  0.289062500       8.59375000E-02  -6.86371252E-02   2.26034727E-02   1.80024244E-02
  0.304687500       8.59375000E-02  -7.60354474E-02   2.36874484E-02   1.78351365E-02
  0.320312500       8.59375000E-02  -8.35421532E-02   2.45492533E-02   1.76656060E-02
  0.335937500       8.59375000E-02  -9.10691172E-02   2.51514930E-02   1.74978226E-02
  0.351562500       8.59375000E-02  -9.85240191E-02   2.54602358E-02   1.73367206E-02
  0.367187500       8.59375000E-02 -0.105812274       2.54458878E-02   1.71881821E-02
  0.382812500       8.59375000E-02 -0.112839043       2.50839591E-02   1.70589387E-02
  0.398437500       8.59375000E-02 -0.119511023       2.43556201E-02   1.69563927E-02
  0.414062500       8.59375000E-02 -0.125738010       2.32480764E-02   1.68884397E-02