 VARIABLES="X","Y","U","V","P"
 ZONE F=POINT, I=          64 , J=          64
   7.81250000E-03   7.81250000E-03   2.30893584E-05  -2.36550786E-05   1.45209339E-02
   2.34375000E-02   7.81250000E-03   5.71342680E-05  -1.17152413E-05   1.45117603E-02
   3.90625000E-02   7.81250000E-03   4.73279688E-05   2.00057111E-05   1.44908633E-02
   5.46875000E-02   7.81250000E-03  -2.69350749E-05   5.27466837E-05   1.44634387E-02
   7.03125000E-02   7.81250000E-03  -1.60888711E-04   7.97005196E-05   1.44335106E-02
   8.59375000E-02   7.81250000E-03  -3.41765990E-04   9.96761228E-05   1.44035080E-02
  0.101562500       7.81250000E-03  -5.56689745E-04   1.13757007E-04   1.43746054E-02
  0.117187500       7.81250000E-03  -7.95626082E-04   1.23701728E-04   1.43471835E-02
  0.132812500       7.81250000E-03  -1.05201034E-03   1.31220077E-04   1.43212359E-02
  0.148437500       7.81250000E-03  -1.32236653E-03   1.37689320E-04   1.42966202E-02
  0.164062500       7.81250000E-03  -1.60557136E-03   1.44087011E-04   1.42732691E-02
  0.179687500       7.81250000E-03  -1.90208759E-03   1.51022032E-04   1.42512489E-02
  0.195312500       7.81250000E-03  -2.21330766E-03   1.58812778E-04   1.42308334E-02
  0.210937500       7.81250000E-03  -2.54103728E-03   1.67554783E-04   1.42125003E-02
  0.226562500       7.81250000E-03  -2.88712513E-03   1.77192196E-04   1.41969435E-02
  0.242187500       7.81250000E-03  -3.25319730E-03   1.87564539E-04   1.41850580E-02
  0.257812500       7.81250000E-03  -3.64049198E-03   1.98442067E-04   1.41778886E-02
  0.273437500       7.81250000E-03  -4.04974399E-03   2.09549675E-04   1.41766611E-02
  0.289062500       7.81250000E-03  -4.48109489E-03   2.20567657E-04   1.41827315E-02
  0.304687500       7.81250000E-03  -4.93401987E-03   2.31149432E-04   1.41975991E-02
  0.320312500       7.81250000E-03  -5.40726027E-03   2.40908150E-04   1.42228696E-02
  0.335937500       7.81250000E-03  -5.89874666E-03   2.49417586E-04   1.42602529E-02
  0.351562500       7.81250000E-03  -6.40551699E-03   2.56217114E-04   1.43115092E-02
  0.367187500       7.81250000E-03  -6.92364341E-03   2.60795176E-04   1.43784387E-02
  0.382812500       7.81250000E-03  -7.44814798E-03   2.62606307E-04   1.44628473E-02
  0.398437500       7.81250000E-03  -7.97291100E-03   2.61066831E-04   1.45664867E-02
  0.414062500       7.81250000E-03  -8.49062484E-03   2.55565712E-04   1.46909431E-02
  0.429687500       7.81250000E-03  -8.99275020E-03   2.45478790E-04   1.48376385E-02
  0.445312500       7.81250000E-03  -9.46949609E-03   2.30181628E-04   1.50076691E-02
  0.460937500       7.81250000E-03  -9.90985893E-03   2.09084959E-04   1.52017418E-02
  0.476562500       7.81250000E-03  -1.03017073E-02   1.81650626E-04   1.54200047E-02
  0.492187500       7.81250000E-03  -1.06319524E-02   1.47455576E-04   1.56619605E-02
  0.507812500       7.81250000E-03  -1.08868172E-02   1.06240441E-04   1.59262866E-02
  0.523437500       7.81250000E-03  -1.10523105E-02   5.80482774E-05   1.62107032E-02
  0.539062500       7.81250000E-03  -1.11150853E-02   3.47329524E-06   1.65117308E-02
  0.554687500       7.81250000E-03  -1.10646989E-02  -5.51636767E-05   1.68235786E-02
  0.570312500       7.81250000E-03  -1.08925626E-02  -1.18331067E-04   1.71403065E-02
  0.585937500       7.81250000E-03  -1.05909649E-02  -1.84680859E-04   1.74560789E-02
  0.601562500       7.81250000E-03  -1.01554897E-02  -2.52266531E-04   1.77642833E-02
  0.617187500       7.81250000E-03  -9.58597101E-03  -3.18780250E-04   1.80578306E-02
  0.632812500       7.81250000E-03  -8.88713356E-03  -3.81635677E-04   1.83294192E-02
  0.648437500       7.81250000E-03  -8.06908868E-03  -4.38038202E-04   1.85719617E-02
  0.664062500       7.81250000E-03  -7.14759901E-03  -4.85121331E-04   1.87789686E-02
  0.679687500       7.81250000E-03  -6.14404026E-03  -5.20136382E-04   1.89449657E-02
  0.695312500       7.81250000E-03  -5.08495513E-03  -5.40673092E-04   1.90659594E-02
  0.710937500       7.81250000E-03  -4.00111452E-03  -5.44907933E-04   1.91397872E-02
  0.726562500       7.81250000E-03  -2.92609679E-03  -5.31853409E-04   1.91663615E-02
  0.742187500       7.81250000E-03  -1.89444481E-03  -5.01538045E-04   1.91477835E-02
  0.757812500       7.81250000E-03  -9.39544174E-04  -4.55088972E-04   1.90882757E-02
  0.773437500       7.81250000E-03  -9.15909186E-05  -3.94567935E-04   1.89939179E-02
  0.789062500       7.81250000E-03   6.23878383E-04  -3.22582491E-04   1.88726634E-02
  0.804687500       7.81250000E-03   1.19026529E-03  -2.45460134E-04   1.87330768E-02
  0.820312500       7.81250000E-03   1.60159415E-03  -1.67490711E-04   1.85832977E-02
  0.835937500       7.81250000E-03   1.86002848E-03  -9.25342392E-05   1.84311774E-02
  0.851562500       7.81250000E-03   1.97488861E-03  -2.38872453E-05   1.82837415E-02
  0.867187500       7.81250000E-03   1.96113763E-03   3.61052516E-05   1.81468520E-02
  0.882812500       7.81250000E-03   1.83714787E-03   8.63792520E-05   1.80252213E-02
  0.898437500       7.81250000E-03   1.62310561E-03   1.26180283E-04   1.79222170E-02
  0.914062500       7.81250000E-03   1.34097529E-03   1.54489404E-04   1.78402737E-02
  0.929687500       7.81250000E-03   1.01564475E-03   1.69398525E-04   1.77809652E-02
  0.945312500       7.81250000E-03   6.77342701E-04   1.67475184E-04   1.77449398E-02
  0.960937500       7.81250000E-03   3.65035870E-04   1.43419267E-04   1.77313313E-02
  0.976562500       7.81250000E-03   1.28453277E-04   9.17633151E-05   1.77364089E-02
  0.992187500       7.81250000E-03   1.79963190E-05   1.75616333E-05   1.77508071E-02
   7.81250000E-03   2.34375000E-02   1.06774278E-05  -5.87553513E-05   1.45301968E-02
   2.34375000E-02   2.34375000E-02  -1.52307512E-05   1.21893409E-05   1.45207122E-02
   3.90625000E-02   2.34375000E-02  -1.60540541E-04   1.47772866E-04   1.45027284E-02
   5.46875000E-02   2.34375000E-02  -4.51163738E-04   2.86435650E-04   1.44796530E-02
   7.03125000E-02   2.34375000E-02  -8.78058549E-04   4.03445447E-04   1.44541794E-02
   8.59375000E-02   2.34375000E-02  -1.41792605E-03   4.93275933E-04   1.44280922E-02
  0.101562500       2.34375000E-02  -2.04543956E-03   5.59216656E-04   1.44023839E-02
  0.117187500       2.34375000E-02  -2.73929443E-03   6.07686583E-04   1.43774990E-02
  0.132812500       2.34375000E-02  -3.48432036E-03   6.45334716E-04   1.43535919E-02
  0.148437500       2.34375000E-02  -4.27140482E-03   6.77741598E-04   1.43306935E-02
  0.164062500       2.34375000E-02  -5.09639923E-03   7.09000276E-04   1.43088866E-02
  0.179687500       2.34375000E-02  -5.95870428E-03   7.41743715E-04   1.42883565E-02
  0.195312500       2.34375000E-02  -6.85991021E-03   7.77384383E-04   1.42694339E-02
  0.210937500       2.34375000E-02  -7.80265825E-03   8.16383108E-04   1.42526310E-02
  0.226562500       2.34375000E-02  -8.78974609E-03   8.58514628E-04   1.42386351E-02
  0.242187500       2.34375000E-02  -9.82347410E-03   9.03076027E-04   1.42283179E-02
  0.257812500       2.34375000E-02  -1.09051755E-02   9.49029753E-04   1.42226871E-02
  0.273437500       2.34375000E-02  -1.20348930E-02   9.95099079E-04   1.42228957E-02
  0.289062500       2.34375000E-02  -1.32111199E-02   1.03982701E-03   1.42302560E-02
  0.304687500       2.34375000E-02  -1.44306086E-02   1.08160218E-03   1.42461751E-02
  0.320312500       2.34375000E-02  -1.56882107E-02   1.11865450E-03   1.42721906E-02
  0.335937500       2.34375000E-02  -1.69767048E-02   1.14906894E-03   1.43099325E-02
  0.351562500       2.34375000E-02  -1.82866752E-02   1.17078365E-03   1.43610612E-02
  0.367187500       2.34375000E-02  -1.96063723E-02   1.18158280E-03   1.44273080E-02
  0.382812500       2.34375000E-02  -2.09216140E-02   1.17913075E-03   1.45103801E-02
  0.398437500       2.34375000E-02  -2.22157165E-02   1.16100418E-03   1.46119501E-02
  0.414062500       2.34375000E-02  -2.34694816E-02   1.12472766E-03   1.47335343E-02
  0.429687500       2.34375000E-02  -2.46612616E-02   1.06784748E-03   1.48764811E-02
  0.445312500       2.34375000E-02  -2.57671028E-02   9.88019281E-04   1.50418412E-02
  0.460937500       2.34375000E-02  -2.67610177E-02   8.83124303E-04   1.52302962E-02
  0.476562500       2.34375000E-02  -2.76153870E-02   7.51400483E-04   1.54419886E-02
  0.492187500       2.34375000E-02  -2.83015855E-02   5.91663644E-04   1.56764463E-02
  0.507812500       2.34375000E-02  -2.87908576E-02   4.03603713E-04   1.59324594E-02
  0.523437500       2.34375000E-02  -2.90556476E-02   1.88308157E-04   1.62079446E-02
  0.539062500       2.34375000E-02  -2.90715173E-02  -5.09180500E-05   1.64998658E-02
  0.554687500       2.34375000E-02  -2.88163275E-02  -3.09248921E-04   1.68012753E-02
  0.570312500       2.34375000E-02  -2.82712150E-02  -5.84525347E-04   1.71073452E-02
  0.585937500       2.34375000E-02  -2.74239890E-02  -8.70479387E-04   1.74123682E-02
  0.601562500       2.34375000E-02  -2.62701698E-02  -1.15908147E-03   1.77099872E-02
  0.617187500       2.34375000E-02  -2.48140935E-02  -1.44102587E-03   1.79934036E-02
  0.632812500       2.34375000E-02  -2.30699405E-02  -1.70598179E-03   1.82556473E-02
  0.648437500       2.34375000E-02  -2.10624933E-02  -1.94290979E-03   1.84899792E-02
  0.664062500       2.34375000E-02  -1.88275203E-02  -2.14054645E-03   1.86902285E-02
  0.679687500       2.34375000E-02  -1.64116137E-02  -2.28809658E-03   1.88512448E-02
  0.695312500       2.34375000E-02  -1.38713866E-02  -2.37601250E-03   1.89693142E-02
  0.710937500       2.34375000E-02  -1.12718968E-02  -2.39692838E-03   1.90424919E-02
  0.726562500       2.34375000E-02  -8.68422352E-03  -2.34656036E-03   1.90708302E-02
  0.742187500       2.34375000E-02  -6.18225615E-03  -2.22447515E-03   1.90564431E-02
  0.757812500       2.34375000E-02  -3.83876543E-03  -2.03453377E-03   1.90034863E-02
  0.773437500       2.34375000E-02  -1.72107830E-03  -1.78469357E-03   1.89177953E-02
  0.789062500       2.34375000E-02   1.13018468E-04  -1.48588466E-03   1.88066419E-02
  0.804687500       2.34375000E-02   1.61641464E-03  -1.15572056E-03   1.86792165E-02
  0.820312500       2.34375000E-02   2.76290113E-03  -8.18734872E-04   1.85419992E-02
  0.835937500       2.34375000E-02   3.55075020E-03  -4.91169980E-04   1.84023343E-02
  0.851562500       2.34375000E-02   3.99447652E-03  -1.87343976E-04   1.82667822E-02
  0.867187500       2.34375000E-02   4.12263907E-03   8.17242835E-05   1.81407928E-02
  0.882812500       2.34375000E-02   3.97471339E-03   3.09324998E-04   1.80286169E-02
  0.898437500       2.34375000E-02   3.59745161E-03   4.91249375E-04   1.79333407E-02
  0.914062500       2.34375000E-02   3.04339640E-03   6.22364110E-04   1.78570300E-02
  0.929687500       2.34375000E-02   2.37237802E-03   6.94666640E-04   1.78008955E-02
  0.945312500       2.34375000E-02   1.65414973E-03   6.95563271E-04   1.77652575E-02
  0.960937500       2.34375000E-02   9.71025089E-04   6.07617490E-04   1.77492891E-02
  0.976562500       2.34375000E-02   4.17531701E-04   4.14510607E-04   1.77506525E-02
  0.992187500       2.34375000E-02   9.28412337E-05   1.27360414E-04   1.77652594E-02
   7.81250000E-03   3.90625000E-02  -2.56238709E-05  -4.53494649E-05   1.45518407E-02
   2.34375000E-02   3.90625000E-02  -1.70817482E-04   1.66416590E-04   1.45382360E-02
   3.90625000E-02   3.90625000E-02  -5.17522567E-04   4.81709605E-04   1.45196766E-02
   5.46875000E-02   3.90625000E-02  -1.07431156E-03   7.96072884E-04   1.44981388E-02
   7.03125000E-02   3.90625000E-02  -1.82168977E-03   1.06425688E-03   1.44751836E-02
   8.59375000E-02   3.90625000E-02  -2.72817817E-03   1.27501343E-03   1.44518614E-02
  0.101562500       3.90625000E-02  -3.76125309E-03   1.43429020E-03   1.44287543E-02
  0.117187500       3.90625000E-02  -4.89339000E-03   1.55486062E-03   1.44061353E-02
  0.132812500       3.90625000E-02  -6.10440318E-03   1.65049429E-03   1.43841263E-02
  0.148437500       3.90625000E-02  -7.38146249E-03   1.73306267E-03   1.43627962E-02
  0.164062500       3.90625000E-02  -8.71788338E-03   1.81147282E-03   1.43422876E-02
  0.179687500       3.90625000E-02  -1.01114362E-02   1.89156597E-03   1.43228490E-02
  0.195312500       3.90625000E-02  -1.15626771E-02   1.97651051E-03   1.43048428E-02
  0.210937500       3.90625000E-02  -1.30734676E-02   2.06735916E-03   1.42888092E-02
  0.226562500       3.90625000E-02  -1.46457870E-02   2.16357643E-03   1.42754382E-02
  0.242187500       3.90625000E-02  -1.62808374E-02   2.26349314E-03   1.42655736E-02
  0.257812500       3.90625000E-02  -1.79783925E-02   2.36464478E-03   1.42601859E-02
  0.273437500       3.90625000E-02  -1.97363198E-02   2.46397289E-03   1.42604113E-02
  0.289062500       3.90625000E-02  -2.15502121E-02   2.55799945E-03   1.42674856E-02
  0.304687500       3.90625000E-02  -2.34131552E-02   2.64287274E-03   1.42827593E-02
  0.320312500       3.90625000E-02  -2.53155120E-02   2.71442067E-03   1.43077262E-02
  0.335937500       3.90625000E-02  -2.72447392E-02   2.76817963E-03   1.43439490E-02
  0.351562500       3.90625000E-02  -2.91852783E-02   2.79940804E-03   1.43930325E-02
  0.367187500       3.90625000E-02  -3.11184712E-02   2.80313264E-03   1.44566707E-02
  0.382812500       3.90625000E-02  -3.30225006E-02   2.77419295E-03   1.45365503E-02
  0.398437500       3.90625000E-02  -3.48724499E-02   2.70737289E-03   1.46343037E-02
  0.414062500       3.90625000E-02  -3.66403982E-02   2.59748800E-03   1.47514530E-02
  0.429687500       3.90625000E-02  -3.82956788E-02   2.43957620E-03   1.48893772E-02
  0.445312500       3.90625000E-02  -3.98052186E-02   2.22909730E-03   1.50491595E-02
  0.460937500       3.90625000E-02  -4.11340334E-02   1.96218537E-03   1.52315572E-02
  0.476562500       3.90625000E-02  -4.22459170E-02   1.63596810E-03   1.54368281E-02
  0.492187500       3.90625000E-02  -4.31042686E-02   1.24896551E-03   1.56646669E-02
  0.507812500       3.90625000E-02  -4.36731651E-02   8.01703252E-04   1.59140565E-02
  0.523437500       3.90625000E-02  -4.39186618E-02   2.97601335E-04   1.61831696E-02
  0.539062500       3.90625000E-02  -4.38106135E-02  -2.55405437E-04   1.64687932E-02
  0.554687500       3.90625000E-02  -4.33220901E-02  -8.51612829E-04   1.67636126E-02
  0.570312500       3.90625000E-02  -4.24323604E-02  -1.48030370E-03   1.70635879E-02
  0.585937500       3.90625000E-02  -4.11306024E-02  -2.12715473E-03   1.73630007E-02
  0.601562500       3.90625000E-02  -3.94154564E-02  -2.77502276E-03   1.76555868E-02
  0.617187500       3.90625000E-02  -3.72960791E-02  -3.40436306E-03   1.79346073E-02
  0.632812500       3.90625000E-02  -3.47932428E-02  -3.99363413E-03   1.81931723E-02
  0.648437500       3.90625000E-02  -3.19401436E-02  -4.51995153E-03   1.84245966E-02
  0.664062500       3.90625000E-02  -2.87828725E-02  -4.96003125E-03   1.86227337E-02
  0.679687500       3.90625000E-02  -2.53803656E-02  -5.29141817E-03   1.87824816E-02
  0.695312500       3.90625000E-02  -2.18037479E-02  -5.49401343E-03   1.89001057E-02
  0.710937500       3.90625000E-02  -1.81348827E-02  -5.55181876E-03   1.89736821E-02
  0.726562500       3.90625000E-02  -1.44640272E-02  -5.45474282E-03   1.90032721E-02
  0.742187500       3.90625000E-02  -1.08865248E-02  -5.20028779E-03   1.89910121E-02
  0.757812500       3.90625000E-02  -7.49848969E-03  -4.79474012E-03   1.89410746E-02
  0.773437500       3.90625000E-02  -4.39159758E-03  -4.25349642E-03   1.88593529E-02
  0.789062500       3.90625000E-02  -1.64732116E-03  -3.59979505E-03   1.87529624E-02
  0.804687500       3.90625000E-02   6.66467182E-04  -2.86322460E-03   1.86306871E-02
  0.820312500       3.90625000E-02   2.49839970E-03  -2.09376332E-03   1.85003560E-02
  0.835937500       3.90625000E-02   3.82810086E-03  -1.33768830E-03   1.83677301E-02
  0.851562500       3.90625000E-02   4.66771983E-03  -6.28058391E-04   1.82392597E-02
  0.867187500       3.90625000E-02   5.05002495E-03   8.18708213E-06   1.81202553E-02
  0.882812500       3.90625000E-02   5.02556236E-03   5.51557459E-04   1.80145465E-02
  0.898437500       3.90625000E-02   4.65827622E-03   9.89952008E-04   1.79248396E-02
  0.914062500       3.90625000E-02   4.02158266E-03   1.31085620E-03   1.78528391E-02
  0.929687500       3.90625000E-02   3.19832144E-03   1.49693771E-03   1.77995078E-02
  0.945312500       3.90625000E-02   2.28282018E-03   1.52353884E-03   1.77650992E-02
  0.960937500       3.90625000E-02   1.38313451E-03   1.35898567E-03   1.77493021E-02
  0.976562500       3.90625000E-02   6.23059983E-04   9.73247108E-04   1.77513603E-02
  0.992187500       3.90625000E-02   1.47220388E-04   3.66220076E-04   1.77706443E-02
   7.81250000E-03   5.46875000E-02  -6.99911106E-05   4.87173929E-05   1.45806447E-02
   2.34375000E-02   5.46875000E-02  -3.58992489E-04   5.03066462E-04   1.45606827E-02
   3.90625000E-02   5.46875000E-02  -9.40359838E-04   1.06927520E-03   1.45393889E-02
   5.46875000E-02   5.46875000E-02  -1.79238571E-03   1.61347410E-03   1.45175308E-02
   7.03125000E-02   5.46875000E-02  -2.87833018E-03   2.07634084E-03   1.44956680E-02
   8.59375000E-02   5.46875000E-02  -4.15675435E-03   2.44402490E-03   1.44741070E-02
  0.101562500       5.46875000E-02  -5.58907352E-03   2.72688619E-03   1.44529305E-02
  0.117187500       5.46875000E-02  -7.14375358E-03   2.94532580E-03   1.44321285E-02
  0.132812500       5.46875000E-02  -8.79773498E-03   3.12130107E-03   1.44116590E-02
  0.148437500       5.46875000E-02  -1.05359713E-02   3.27387406E-03   1.43915499E-02
  0.164062500       5.46875000E-02  -1.23499613E-02   3.41744162E-03   1.43719055E-02
  0.179687500       5.46875000E-02  -1.42358793E-02   3.56149604E-03   1.43529922E-02
  0.195312500       5.46875000E-02  -1.61927305E-02   3.71116260E-03   1.43351983E-02
  0.210937500       5.46875000E-02  -1.82207450E-02   3.86806647E-03   1.43190585E-02
  0.226562500       5.46875000E-02  -2.03200839E-02   4.03114455E-03   1.43052600E-02
  0.242187500       5.46875000E-02  -2.24898160E-02   4.19740099E-03   1.42946346E-02
  0.257812500       5.46875000E-02  -2.47272067E-02   4.36245464E-03   1.42881144E-02
  0.273437500       5.46875000E-02  -2.70272046E-02   4.52092569E-03   1.42867984E-02
  0.289062500       5.46875000E-02  -2.93820277E-02   4.66669211E-03   1.42918788E-02
  0.304687500       5.46875000E-02  -3.17809321E-02   4.79303487E-03   1.43046752E-02
  0.320312500       5.46875000E-02  -3.42100039E-02   4.89275809E-03   1.43266339E-02
  0.335937500       5.46875000E-02  -3.66520137E-02   4.95822914E-03   1.43593000E-02
  0.351562500       5.46875000E-02  -3.90863642E-02   4.98147868E-03   1.44042633E-02
  0.367187500       5.46875000E-02  -4.14890759E-02   4.95426264E-03   1.44631872E-02
  0.382812500       5.46875000E-02  -4.38328460E-02   4.86821402E-03   1.45378057E-02
  0.398437500       5.46875000E-02  -4.60871719E-02   4.71502915E-03   1.46297803E-02
  0.414062500       5.46875000E-02  -4.82186303E-02   4.48668329E-03   1.47406999E-02
  0.429687500       5.46875000E-02  -5.01912460E-02   4.17573750E-03   1.48720387E-02
  0.445312500       5.46875000E-02  -5.19669689E-02   3.77566507E-03   1.50250215E-02
  0.460937500       5.46875000E-02  -5.35063371E-02   3.28126177E-03   1.52005497E-02
  0.476562500       5.46875000E-02  -5.47692701E-02   2.68912828E-03   1.53990854E-02
  0.492187500       5.46875000E-02  -5.57159521E-02   1.99820823E-03   1.56205781E-02
  0.507812500       5.46875000E-02  -5.63078225E-02   1.21052936E-03   1.58642922E-02
  0.523437500       5.46875000E-02  -5.65085150E-02   3.32146941E-04   1.61288287E-02
  0.539062500       5.46875000E-02  -5.62840104E-02  -6.25431014E-04   1.64096877E-02
  0.554687500       5.46875000E-02  -5.56069911E-02  -1.65016972E-03   1.67012662E-02
  0.570312500       5.46875000E-02  -5.44596538E-02  -2.72202399E-03   1.69988479E-02
  0.585937500       5.46875000E-02  -5.28326109E-02  -3.81760066E-03   1.72968041E-02
  0.601562500       5.46875000E-02  -5.07261604E-02  -4.90972213E-03   1.75888445E-02
  0.617187500       5.46875000E-02  -4.81512174E-02  -5.96769340E-03   1.78681910E-02
  0.632812500       5.46875000E-02  -4.51304317E-02  -6.95780572E-03   1.81278512E-02
  0.648437500       5.46875000E-02  -4.16991040E-02  -7.84424320E-03   1.83609724E-02
  0.664062500       5.46875000E-02  -3.79058979E-02  -8.59039463E-03   1.85612626E-02
  0.679687500       5.46875000E-02  -3.38131711E-02  -9.16057639E-03   1.87234040E-02
  0.695312500       5.46875000E-02  -2.94967704E-02  -9.52223875E-03   1.88434608E-02
  0.710937500       5.46875000E-02  -2.50451714E-02  -9.64848418E-03   1.89193115E-02
  0.726562500       5.46875000E-02  -2.05577053E-02  -9.52084549E-03   1.89508833E-02
  0.742187500       5.46875000E-02  -1.61417425E-02  -9.13208071E-03   1.89402848E-02
  0.757812500       5.46875000E-02  -1.19086849E-02  -8.48845392E-03   1.88917201E-02
  0.773437500       5.46875000E-02  -7.96862505E-03  -7.61109963E-03   1.88112520E-02
  0.789062500       5.46875000E-02  -4.42377478E-03  -6.53559668E-03   1.87062584E-02
  0.804687500       5.46875000E-02  -1.36037485E-03  -5.30879153E-03   1.85849033E-02
  0.820312500       5.46875000E-02   1.15038734E-03  -3.99496546E-03   1.84562467E-02
  0.835937500       5.46875000E-02   3.06017417E-03  -2.67994031E-03   1.83265340E-02
  0.851562500       5.46875000E-02   4.36312798E-03  -1.43224827E-03   1.82012506E-02
  0.867187500       5.46875000E-02   5.09077357E-03  -3.01346707E-04   1.80857368E-02
  0.882812500       5.46875000E-02   5.29852230E-03   6.74121315E-04   1.79838203E-02
  0.898437500       5.46875000E-02   5.06177638E-03   1.46781944E-03   1.78976841E-02
  0.914062500       5.46875000E-02   4.46966756E-03   2.05825130E-03   1.78287309E-02
  0.929687500       5.46875000E-02   3.62159638E-03   2.41737394E-03   1.77776888E-02
  0.945312500       5.46875000E-02   2.62929033E-03   2.50744051E-03   1.77448243E-02
  0.960937500       5.46875000E-02   1.61993119E-03   2.28067231E-03   1.77302230E-02
  0.976562500       5.46875000E-02   7.41869328E-04   1.68624194E-03   1.77341383E-02
  0.992187500       5.46875000E-02   1.77882175E-04   6.90137269E-04   1.77575741E-02
   7.81250000E-03   7.03125000E-02  -1.16059913E-04   2.33214188E-04   1.46115515E-02
   2.34375000E-02   7.03125000E-02  -5.56281186E-04   1.04429957E-03   1.45842452E-02
   3.90625000E-02   7.03125000E-02  -1.38472486E-03   1.93397654E-03   1.45590510E-02
   5.46875000E-02   7.03125000E-02  -2.54350225E-03   2.75570760E-03   1.45357270E-02
   7.03125000E-02   7.03125000E-02  -3.97399953E-03   3.44669539E-03   1.45139471E-02
   8.59375000E-02   7.03125000E-02  -5.62246516E-03   3.99673032E-03   1.44933090E-02
  0.101562500       7.03125000E-02  -7.44377729E-03   4.42401227E-03   1.44733880E-02
  0.117187500       7.03125000E-02  -9.40301549E-03   4.75834776E-03   1.44538265E-02
  0.132812500       7.03125000E-02  -1.14752240E-02   5.03073353E-03   1.44343758E-02
  0.148437500       7.03125000E-02  -1.36440322E-02   5.26779611E-03   1.44149289E-02
  0.164062500       7.03125000E-02  -1.58996843E-02   5.48952259E-03   1.43955406E-02
  0.179687500       7.03125000E-02  -1.82369445E-02   5.70900599E-03   1.43764392E-02
  0.195312500       7.03125000E-02  -2.06531473E-02   5.93318511E-03   1.43580148E-02
  0.210937500       7.03125000E-02  -2.31465679E-02   6.16402924E-03   1.43407555E-02
  0.226562500       7.03125000E-02  -2.57151257E-02   6.39968645E-03   1.43253589E-02
  0.242187500       7.03125000E-02  -2.83553898E-02   6.63553923E-03   1.43126156E-02
  0.257812500       7.03125000E-02  -3.10618896E-02   6.86497381E-03   1.43034495E-02
  0.273437500       7.03125000E-02  -3.38265970E-02   7.07995705E-03   1.42989093E-02
  0.289062500       7.03125000E-02  -3.66386063E-02   7.27142068E-03   1.43001508E-02
  0.304687500       7.03125000E-02  -3.94838899E-02   7.42949825E-03   1.43085029E-02
  0.320312500       7.03125000E-02  -4.23451662E-02   7.54371565E-03   1.43253617E-02
  0.335937500       7.03125000E-02  -4.52017859E-02   7.60306884E-03   1.43522806E-02
  0.351562500       7.03125000E-02  -4.80297506E-02   7.59620732E-03   1.43908309E-02
  0.367187500       7.03125000E-02  -5.08017503E-02   7.51155987E-03   1.44427661E-02
  0.382812500       7.03125000E-02  -5.34872636E-02   7.33757485E-03   1.45098642E-02
  0.398437500       7.03125000E-02  -5.60527928E-02   7.06297532E-03   1.45938732E-02
  0.414062500       7.03125000E-02  -5.84622249E-02   6.67712372E-03   1.46965096E-02
  0.429687500       7.03125000E-02  -6.06772229E-02   6.17043069E-03   1.48194116E-02
  0.445312500       7.03125000E-02  -6.26578033E-02   5.53481234E-03   1.49639975E-02
  0.460937500       7.03125000E-02  -6.43630177E-02   4.76423558E-03   1.51313990E-02
  0.476562500       7.03125000E-02  -6.57516867E-02   3.85527825E-03   1.53223472E-02
  0.492187500       7.03125000E-02  -6.67832643E-02   2.80778063E-03   1.55370878E-02
  0.507812500       7.03125000E-02  -6.74185753E-02   1.62555242E-03   1.57752093E-02
  0.523437500       7.03125000E-02  -6.76205903E-02   3.17151425E-04   1.60356387E-02
  0.539062500       7.03125000E-02  -6.73549697E-02  -1.10335590E-03   1.63138807E-02
  0.554687500       7.03125000E-02  -6.65943474E-02  -2.61280057E-03   1.66044123E-02
  0.570312500       7.03125000E-02  -6.53206557E-02  -4.18349355E-03   1.69023611E-02
  0.585937500       7.03125000E-02  -6.35236949E-02  -5.78333810E-03   1.72020756E-02
  0.601562500       7.03125000E-02  -6.12020269E-02  -7.37548713E-03   1.74971893E-02
  0.617187500       7.03125000E-02  -5.83640486E-02  -8.91840458E-03   1.77808106E-02
  0.632812500       7.03125000E-02  -5.50292507E-02  -1.03663858E-02   1.80457123E-02
  0.648437500       7.03125000E-02  -5.12295291E-02  -1.16705904E-02   1.82847902E-02
  0.664062500       7.03125000E-02  -4.70102504E-02  -1.27805583E-02   1.84913855E-02
  0.679687500       7.03125000E-02  -4.24311459E-02  -1.36463866E-02   1.86598040E-02
  0.695312500       7.03125000E-02  -3.75667699E-02  -1.42214317E-02   1.87857226E-02
  0.710937500       7.03125000E-02  -3.25063728E-02  -1.44655779E-02   1.88666563E-02
  0.726562500       7.03125000E-02  -2.73529403E-02  -1.43489819E-02   1.89022124E-02
  0.742187500       7.03125000E-02  -2.22211592E-02  -1.38560263E-02   1.88943408E-02
  0.757812500       7.03125000E-02  -1.72340237E-02  -1.29890274E-02   1.88472196E-02
  0.773437500       7.03125000E-02  -1.25177875E-02  -1.17711006E-02   1.87670253E-02
  0.789062500       7.03125000E-02  -8.19512364E-03  -1.02473199E-02   1.86614580E-02
  0.804687500       7.03125000E-02  -4.37642913E-03  -8.48328788E-03   1.85390934E-02
  0.820312500       7.03125000E-02  -1.15018093E-03  -6.56151120E-03   1.84085742E-02
  0.835937500       7.03125000E-02   1.41238037E-03  -4.58967499E-03   1.82781499E-02
  0.851562500       7.03125000E-02   3.27175646E-03  -2.68867565E-03   1.81529578E-02
  0.867187500       7.03125000E-02   4.44336794E-03  -9.47920315E-04   1.80379860E-02
  0.882812500       7.03125000E-02   4.98390477E-03   5.68749558E-04   1.79372244E-02
  0.898437500       7.03125000E-02   4.97731753E-03   1.81294442E-03   1.78528000E-02
  0.914062500       7.03125000E-02   4.52656951E-03   2.75246310E-03   1.77855399E-02
  0.929687500       7.03125000E-02   3.74628510E-03   3.34803946E-03   1.77359879E-02
  0.945312500       7.03125000E-02   2.76383548E-03   3.54808010E-03   1.77043490E-02
  0.960937500       7.03125000E-02   1.72371394E-03   3.28607950E-03   1.76908858E-02
  0.976562500       7.03125000E-02   7.95887609E-04   2.48329481E-03   1.76963061E-02
  0.992187500       7.03125000E-02   1.91612286E-04   1.05845754E-03   1.77221857E-02
   7.81250000E-03   8.59375000E-02  -1.61355478E-04   5.09069243E-04   1.46399941E-02
   2.34375000E-02   8.59375000E-02  -7.51800486E-04   1.79560436E-03   1.46050882E-02
   3.90625000E-02   8.59375000E-02  -1.82692427E-03   3.08234710E-03   1.45754963E-02
   5.46875000E-02   8.59375000E-02  -3.29094590E-03   4.22624964E-03   1.45500768E-02
   7.03125000E-02   8.59375000E-02  -5.06112538E-03   5.17295860E-03   1.45277008E-02
   8.59375000E-02   8.59375000E-02  -7.06977863E-03   5.92373405E-03   1.45072965E-02
  0.101562500       8.59375000E-02  -9.26450267E-03   6.50921743E-03   1.44879706E-02
  0.117187500       8.59375000E-02  -1.16069056E-02   6.97099138E-03   1.44690052E-02
  0.132812500       8.59375000E-02  -1.40704438E-02   7.35008856E-03   1.44499084E-02
  0.148437500       8.59375000E-02  -1.66378208E-02   7.68092275E-03   1.44304354E-02
  0.164062500       8.59375000E-02  -1.92983635E-02   7.98893906E-03   1.44105377E-02
  0.179687500       8.59375000E-02  -2.20456496E-02   8.29052832E-03   1.43903792E-02
  0.195312500       8.59375000E-02  -2.48754434E-02   8.59412365E-03   1.43703176E-02
  0.210937500       8.59375000E-02  -2.77841277E-02   8.90173204E-03   1.43508185E-02
  0.226562500       8.59375000E-02  -3.07674669E-02   9.21048131E-03   1.43325347E-02
  0.242187500       8.59375000E-02  -3.38197127E-02   9.51393601E-03   1.43162301E-02
  0.257812500       8.59375000E-02  -3.69330049E-02   9.80313029E-03   1.43027864E-02
  0.273437500       8.59375000E-02  -4.00969535E-02   1.00673009E-02   1.42932404E-02
  0.289062500       8.59375000E-02  -4.32983488E-02   1.02944113E-02   1.42887160E-02
  0.304687500       8.59375000E-02  -4.65210080E-02   1.04714716E-02   1.42905265E-02
  0.320312500       8.59375000E-02  -4.97456565E-02   1.05847688E-02   1.43000577E-02
  0.335937500       8.59375000E-02  -5.29498681E-02   1.06200483E-02   1.43188890E-02
  0.351562500       8.59375000E-02  -5.61080799E-02   1.05626974E-02   1.43486634E-02
  0.367187500       8.59375000E-02  -5.91916516E-02   1.03980061E-02   1.43911578E-02
  0.382812500       8.59375000E-02  -6.21690042E-02   1.01114325E-02   1.44482516E-02
  0.398437500       8.59375000E-02  -6.50058091E-02   9.68898647E-03   1.45218708E-02
  0.414062500       8.59375000E-02  -6.76653832E-02   9.11770388E-03   1.46138929E-02