 VARIABLES="X","Y","U","V","P"
 ZONE F=POINT, I=          64 , J=          64
   7.81250000E-03   7.81250000E-03   1.33575104E-05  -1.38748228E-05   1.11252237E-02
   2.34375000E-02   7.81250000E-03   1.44437900E-05   1.15762195E-05   1.11150332E-02
   3.90625000E-02   7.81250000E-03  -4.55144618E-05   4.69936422E-05   1.10979406E-02
   5.46875000E-02   7.81250000E-03  -1.71752879E-04   7.78590256E-05   1.10797612E-02
   7.03125000E-02   7.81250000E-03  -3.51866998E-04   1.00870777E-04   1.10641913E-02
   8.59375000E-02   7.81250000E-03  -5.70763368E-04   1.16643729E-04   1.10531859E-02
  0.101562500       7.81250000E-03  -8.15659063E-04   1.26874074E-04   1.10475719E-02
  0.117187500       7.81250000E-03  -1.07719598E-03   1.33292662E-04   1.10475440E-02
  0.132812500       7.81250000E-03  -1.34917162E-03   1.37322088E-04   1.10529885E-02
  0.148437500       7.81250000E-03  -1.62786338E-03   1.40018019E-04   1.10637015E-02
  0.164062500       7.81250000E-03  -1.91132445E-03   1.42099758E-04   1.10794958E-02
  0.179687500       7.81250000E-03  -2.19878089E-03   1.44023667E-04   1.11002773E-02
  0.195312500       7.81250000E-03  -2.49016983E-03   1.46044942E-04   1.11260507E-02
  0.210937500       7.81250000E-03  -2.78580026E-03   1.48276464E-04   1.11569362E-02
  0.226562500       7.81250000E-03  -3.08610755E-03   1.50734879E-04   1.11931674E-02
  0.242187500       7.81250000E-03  -3.39149125E-03   1.53367349E-04   1.12350630E-02
  0.257812500       7.81250000E-03  -3.70220374E-03   1.56075737E-04   1.12830345E-02
  0.273437500       7.81250000E-03  -4.01826063E-03   1.58724215E-04   1.13375746E-02
  0.289062500       7.81250000E-03  -4.33938205E-03   1.61152027E-04   1.13992263E-02
  0.304687500       7.81250000E-03  -4.66494076E-03   1.63176213E-04   1.14685763E-02
  0.320312500       7.81250000E-03  -4.99392301E-03   1.64589583E-04   1.15462281E-02
  0.335937500       7.81250000E-03  -5.32488571E-03   1.65166566E-04   1.16328159E-02
  0.351562500       7.81250000E-03  -5.65591268E-03   1.64665209E-04   1.17289759E-02
  0.367187500       7.81250000E-03  -5.98458759E-03   1.62825294E-04   1.18352911E-02
  0.382812500       7.81250000E-03  -6.30796980E-03   1.59380652E-04   1.19523024E-02
  0.398437500       7.81250000E-03  -6.62257802E-03   1.54059031E-04   1.20804720E-02
  0.414062500       7.81250000E-03  -6.92438893E-03   1.46588529E-04   1.22201405E-02
  0.429687500       7.81250000E-03  -7.20884744E-03   1.36712246E-04   1.23715010E-02
  0.445312500       7.81250000E-03  -7.47091183E-03   1.24196245E-04   1.25345504E-02
  0.460937500       7.81250000E-03  -7.70510361E-03   1.08840708E-04   1.27090737E-02
  0.476562500       7.81250000E-03  -7.90559314E-03   9.04928747E-05   1.28945708E-02
  0.492187500       7.81250000E-03  -8.06629937E-03   6.90551533E-05   1.30902342E-02
  0.507812500       7.81250000E-03  -8.18101503E-03   4.44976213E-05   1.32948896E-02
  0.523437500       7.81250000E-03  -8.24362133E-03   1.69420509E-05   1.35069638E-02
  0.539062500       7.81250000E-03  -8.24877247E-03  -1.29611726E-05   1.37243569E-02
  0.554687500       7.81250000E-03  -8.19193944E-03  -4.50508924E-05   1.39440196E-02
  0.570312500       7.81250000E-03  -8.06901045E-03  -7.90647755E-05   1.41633246E-02
  0.585937500       7.81250000E-03  -7.87681900E-03  -1.14316266E-04   1.43793384E-02
  0.601562500       7.81250000E-03  -7.61379208E-03  -1.49904925E-04   1.45888887E-02
  0.617187500       7.81250000E-03  -7.28028640E-03  -1.84798118E-04   1.47886556E-02
  0.632812500       7.81250000E-03  -6.87882211E-03  -2.17866473E-04   1.49753075E-02
  0.648437500       7.81250000E-03  -6.41421834E-03  -2.47936841E-04   1.51456352E-02
  0.664062500       7.81250000E-03  -5.89362904E-03  -2.73847487E-04   1.52967097E-02
  0.679687500       7.81250000E-03  -5.32646338E-03  -2.94507539E-04   1.54260434E-02
  0.695312500       7.81250000E-03  -4.72416915E-03  -3.08970222E-04   1.55317336E-02
  0.710937500       7.81250000E-03  -4.09986684E-03  -3.16504680E-04   1.56125985E-02
  0.726562500       7.81250000E-03  -3.46786063E-03  -3.16661026E-04   1.56682339E-02
  0.742187500       7.81250000E-03  -2.84303026E-03  -3.09319003E-04   1.56991091E-02
  0.757812500       7.81250000E-03  -2.24013254E-03  -2.94714962E-04   1.57065336E-02
  0.773437500       7.81250000E-03  -1.67310098E-03  -2.73438753E-04   1.56925991E-02
  0.789062500       7.81250000E-03  -1.15437340E-03  -2.46396783E-04   1.56600699E-02
  0.804687500       7.81250000E-03  -6.94328919E-04  -2.14742788E-04   1.56122334E-02
  0.820312500       7.81250000E-03  -3.00883810E-04  -1.79784140E-04   1.55527182E-02
  0.835937500       7.81250000E-03   2.07010380E-05  -1.42870282E-04   1.54853072E-02
  0.851562500       7.81250000E-03   2.67749012E-04  -1.05237195E-04   1.54138058E-02
  0.867187500       7.81250000E-03   4.40246455E-04  -6.83090111E-05   1.53417960E-02
  0.882812500       7.81250000E-03   5.40711684E-04  -3.31951524E-05   1.52725652E-02
  0.898437500       7.81250000E-03   5.73827943E-04  -9.49316700E-07   1.52090620E-02
  0.914062500       7.81250000E-03   5.46454161E-04   2.73030728E-05   1.51538663E-02
  0.929687500       7.81250000E-03   4.68027953E-04   5.01103787E-05   1.51091851E-02
  0.945312500       7.81250000E-03   3.51795607E-04   6.51182709E-05   1.50767695E-02
  0.960937500       7.81250000E-03   2.17263572E-04   6.84213810E-05   1.50577296E-02
  0.976562500       7.81250000E-03   9.34785203E-05   5.43830720E-05   1.50518380E-02
  0.992187500       7.81250000E-03   1.93035085E-05   1.89997372E-05   1.50559749E-02
   7.81250000E-03   2.34375000E-02  -1.29654682E-05  -1.54859208E-05   1.11355036E-02
   2.34375000E-02   2.34375000E-02  -1.05480874E-04   1.01822850E-04   1.11250989E-02
   3.90625000E-02   2.34375000E-02  -3.39842256E-04   2.47922755E-04   1.11112148E-02
   5.46875000E-02   2.34375000E-02  -7.16884038E-04   3.77073186E-04   1.10972133E-02
   7.03125000E-02   2.34375000E-02  -1.21492776E-03   4.76681977E-04   1.10855531E-02
   8.59375000E-02   2.34375000E-02  -1.80607592E-03   5.47755859E-04   1.10777374E-02
  0.101562500       2.34375000E-02  -2.46448070E-03   5.95956459E-04   1.10745309E-02
  0.117187500       2.34375000E-02  -3.16951866E-03   6.27693837E-04   1.10762361E-02
  0.132812500       2.34375000E-02  -3.90627421E-03   6.48579444E-04   1.10829063E-02
  0.148437500       2.34375000E-02  -4.66482993E-03   6.62957726E-04   1.10944835E-02
  0.164062500       2.34375000E-02  -5.43915201E-03   6.73913921E-04   1.11109084E-02
  0.179687500       2.34375000E-02  -6.22596033E-03   6.83471852E-04   1.11321695E-02
  0.195312500       2.34375000E-02  -7.02376757E-03   6.92817441E-04   1.11583294E-02
  0.210937500       2.34375000E-02  -7.83210341E-03   7.02521473E-04   1.11895502E-02
  0.226562500       2.34375000E-02  -8.65093432E-03   7.12711364E-04   1.12260748E-02
  0.242187500       2.34375000E-02  -9.48023982E-03   7.23198173E-04   1.12682246E-02
  0.257812500       2.34375000E-02  -1.03197051E-02   7.33569090E-04   1.13163926E-02
  0.273437500       2.34375000E-02  -1.11684855E-02   7.43243843E-04   1.13710575E-02
  0.289062500       2.34375000E-02  -1.20250322E-02   7.51508807E-04   1.14327343E-02
  0.304687500       2.34375000E-02  -1.28869526E-02   7.57546572E-04   1.15019688E-02
  0.320312500       2.34375000E-02  -1.37509126E-02   7.60439318E-04   1.15793375E-02
  0.335937500       2.34375000E-02  -1.46125257E-02   7.59197224E-04   1.16654355E-02
  0.351562500       2.34375000E-02  -1.54662896E-02   7.52756372E-04   1.17608532E-02
  0.367187500       2.34375000E-02  -1.63055249E-02   7.40000512E-04   1.18661411E-02
  0.382812500       2.34375000E-02  -1.71223506E-02   7.19790987E-04   1.19817983E-02
  0.398437500       2.34375000E-02  -1.79076847E-02   6.90986693E-04   1.21082421E-02
  0.414062500       2.34375000E-02  -1.86512843E-02   6.52479997E-04   1.22457920E-02
  0.429687500       2.34375000E-02  -1.93418302E-02   6.03247841E-04   1.23946052E-02
  0.445312500       2.34375000E-02  -1.99670717E-02   5.42391790E-04   1.25546614E-02
  0.460937500       2.34375000E-02  -2.05140114E-02   4.69195627E-04   1.27257407E-02
  0.476562500       2.34375000E-02  -2.09691636E-02   3.83190869E-04   1.29073411E-02
  0.492187500       2.34375000E-02  -2.13188939E-02   2.84193549E-04   1.30986692E-02
  0.507812500       2.34375000E-02  -2.15498284E-02   1.72391417E-04   1.32986177E-02
  0.523437500       2.34375000E-02  -2.16493979E-02   4.85953278E-05   1.35057196E-02
  0.539062500       2.34375000E-02  -2.16065254E-02  -8.49845674E-05   1.37177259E-02
  0.554687500       2.34375000E-02  -2.14111283E-02  -2.27936063E-04   1.39316674E-02
  0.570312500       2.34375000E-02  -2.10546330E-02  -3.78302007E-04   1.41450865E-02
  0.585937500       2.34375000E-02  -2.05316506E-02  -5.32967621E-04   1.43551398E-02
  0.601562500       2.34375000E-02  -1.98405646E-02  -6.88106171E-04   1.45587828E-02
  0.617187500       2.34375000E-02  -1.89840347E-02  -8.39392887E-04   1.47528481E-02
  0.632812500       2.34375000E-02  -1.79693662E-02  -9.82175348E-04   1.49341486E-02
  0.648437500       2.34375000E-02  -1.68087259E-02  -1.11164618E-03   1.50996279E-02
  0.664062500       2.34375000E-02  -1.55191515E-02  -1.22307288E-03   1.52465077E-02
  0.679687500       2.34375000E-02  -1.41223334E-02  -1.31202582E-03   1.53724384E-02
  0.695312500       2.34375000E-02  -1.26441605E-02  -1.37466600E-03   1.54756475E-02
  0.710937500       2.34375000E-02  -1.11139826E-02  -1.40800932E-03   1.55550437E-02
  0.726562500       2.34375000E-02  -9.56365187E-03  -1.41017931E-03   1.56103019E-02
  0.742187500       2.34375000E-02  -8.02632608E-03  -1.38061005E-03   1.56419110E-02
  0.757812500       2.34375000E-02  -6.53511425E-03  -1.32014684E-03   1.56511702E-02
  0.773437500       2.34375000E-02  -5.12166135E-03  -1.23106223E-03   1.56401228E-02
  0.789062500       2.34375000E-02  -3.81476549E-03  -1.11692084E-03   1.56114409E-02
  0.804687500       2.34375000E-02  -2.63916119E-03  -9.82343219E-04   1.55682843E-02
  0.820312500       2.34375000E-02  -1.61456037E-03  -8.32660589E-04   1.55141186E-02
  0.835937500       2.34375000E-02  -7.55021349E-04  -6.73511007E-04   1.54525470E-02
  0.851562500       2.34375000E-02  -6.86396743E-05  -5.10382757E-04   1.53871458E-02
  0.867187500       2.34375000E-02   4.42008837E-04  -3.48626694E-04   1.53213926E-02
  0.882812500       2.34375000E-02   7.80342147E-04  -1.93964719E-04   1.52582591E-02
  0.898437500       2.34375000E-02   9.56149597E-04  -5.13716514E-05   1.52004585E-02
  0.914062500       2.34375000E-02   9.85104358E-04   7.38942545E-05   1.51503161E-02
  0.929687500       2.34375000E-02   8.89506540E-04   1.75310095E-04   1.51097178E-02
  0.945312500       2.34375000E-02   6.99966215E-04   2.43473827E-04   1.50800552E-02
  0.960937500       2.34375000E-02   4.58096940E-04   2.64260249E-04   1.50621086E-02
  0.976562500       2.34375000E-02   2.19335270E-04   2.18896123E-04   1.50558231E-02
  0.992187500       2.34375000E-02   5.42998423E-05   9.18755686E-05   1.50601491E-02
   7.81250000E-03   3.90625000E-02  -5.23305680E-05   4.84092270E-05   1.11530265E-02
   2.34375000E-02   3.90625000E-02  -2.67699215E-04   3.42649990E-04   1.11386608E-02
   3.90625000E-02   3.90625000E-02  -6.99310098E-04   6.69551606E-04   1.11245066E-02
   5.46875000E-02   3.90625000E-02  -1.32780150E-03   9.57470911E-04   1.11120883E-02
   7.03125000E-02   3.90625000E-02  -2.12098332E-03   1.18401158E-03   1.11026820E-02
   8.59375000E-02   3.90625000E-02  -3.04316520E-03   1.35027512E-03   1.10971369E-02
  0.101562500       3.90625000E-02  -4.06154804E-03   1.46676344E-03   1.10959141E-02
  0.117187500       3.90625000E-02  -5.14927227E-03   1.54620421E-03   1.10992184E-02
  0.132812500       3.90625000E-02  -6.28612470E-03   1.60025200E-03   1.11071011E-02
  0.148437500       3.90625000E-02  -7.45793851E-03   1.63825403E-03   1.11195603E-02
  0.164062500       3.90625000E-02  -8.65542796E-03   1.66705530E-03   1.11365924E-02
  0.179687500       3.90625000E-02  -9.87290312E-03   1.69127155E-03   1.11582419E-02
  0.195312500       3.90625000E-02  -1.11070881E-02   1.71369768E-03   1.11846216E-02
  0.210937500       3.90625000E-02  -1.23561332E-02   1.73574360E-03   1.12159178E-02
  0.226562500       3.90625000E-02  -1.36188455E-02   1.75778917E-03   1.12523921E-02
  0.242187500       3.90625000E-02  -1.48940859E-02   1.77946314E-03   1.12943780E-02
  0.257812500       3.90625000E-02  -1.61803253E-02   1.79984444E-03   1.13422656E-02
  0.273437500       3.90625000E-02  -1.74753089E-02   1.81760266E-03   1.13965059E-02
  0.289062500       3.90625000E-02  -1.87757947E-02   1.83109310E-03   1.14576155E-02
  0.304687500       3.90625000E-02  -2.00773589E-02   1.83840096E-03   1.15261180E-02
  0.320312500       3.90625000E-02  -2.13742331E-02   1.83740980E-03   1.16025787E-02
  0.335937500       3.90625000E-02  -2.26591900E-02   1.82582415E-03   1.16875544E-02
  0.351562500       3.90625000E-02  -2.39234623E-02   1.80121954E-03   1.17816320E-02
  0.367187500       3.90625000E-02  -2.51566842E-02   1.76108163E-03   1.18853403E-02
  0.382812500       3.90625000E-02  -2.63469014E-02   1.70286943E-03   1.19991647E-02
  0.398437500       3.90625000E-02  -2.74806116E-02   1.62408873E-03   1.21235084E-02
  0.414062500       3.90625000E-02  -2.85428725E-02   1.52238691E-03   1.22586992E-02
  0.429687500       3.90625000E-02  -2.95174643E-02   1.39563845E-03   1.24048991E-02
  0.445312500       3.90625000E-02  -3.03871315E-02   1.24206766E-03   1.25621147E-02
  0.460937500       3.90625000E-02  -3.11338957E-02   1.06037839E-03   1.27301570E-02
  0.476562500       3.90625000E-02  -3.17394622E-02   8.49876786E-04   1.29085379E-02
  0.492187500       3.90625000E-02  -3.21856961E-02   6.10602729E-04   1.30965188E-02
  0.507812500       3.90625000E-02  -3.24551836E-02   3.43504420E-04   1.32930763E-02
  0.523437500       3.90625000E-02  -3.25317457E-02   5.06981451E-05   1.34968534E-02
  0.539062500       3.90625000E-02  -3.24006602E-02  -2.63990776E-04   1.37051428E-02
  0.554687500       3.90625000E-02  -3.20493355E-02  -5.98640123E-04   1.39155108E-02
  0.570312500       3.90625000E-02  -3.14685218E-02  -9.47910477E-04   1.41254812E-02
  0.585937500       3.90625000E-02  -3.06533258E-02  -1.30457082E-03   1.43322246E-02
  0.601562500       3.90625000E-02  -2.96039004E-02  -1.66008901E-03   1.45327542E-02
  0.617187500       3.90625000E-02  -2.83259675E-02  -2.00497778E-03   1.47239268E-02
  0.632812500       3.90625000E-02  -2.68312003E-02  -2.32914882E-03   1.49026001E-02
  0.648437500       3.90625000E-02  -2.51373947E-02  -2.62225093E-03   1.50657501E-02
  0.664062500       3.90625000E-02  -2.32684445E-02  -2.87412573E-03   1.52106378E-02
  0.679687500       3.90625000E-02  -2.12540627E-02  -3.07529792E-03   1.53349265E-02
  0.695312500       3.90625000E-02  -1.91292055E-02  -3.21753975E-03   1.54368747E-02
  0.710937500       3.90625000E-02  -1.69331990E-02  -3.29440180E-03   1.55154187E-02
  0.726562500       3.90625000E-02  -1.47086121E-02  -3.30174901E-03   1.55702420E-02
  0.742187500       3.90625000E-02  -1.24998009E-02  -3.23817460E-03   1.56018687E-02
  0.757812500       3.90625000E-02  -1.03512816E-02  -3.10525810E-03   1.56116039E-02
  0.773437500       3.90625000E-02  -8.30595940E-03  -2.90761562E-03   1.56015139E-02
  0.789062500       3.90625000E-02  -6.40336191E-03  -2.65268818E-03   1.55742783E-02
  0.804687500       3.90625000E-02  -4.67801187E-03  -2.35029333E-03   1.55330608E-02
  0.820312500       3.90625000E-02  -3.15806502E-03  -2.01195851E-03   1.54813081E-02
  0.835937500       3.90625000E-02  -1.86432386E-03  -1.65013818E-03   1.54225836E-02
  0.851562500       3.90625000E-02  -8.09640274E-04  -1.27741089E-03   1.53603852E-02
  0.867187500       3.90625000E-02   1.36479503E-06  -9.05790133E-04   1.52979959E-02
  0.882812500       3.90625000E-02   5.71499229E-04  -5.47770178E-04   1.52384639E-02
  0.898437500       3.90625000E-02   9.12289368E-04  -2.16640852E-04   1.51841510E-02
  0.914062500       3.90625000E-02   1.04494602E-03   7.50943072E-05   1.51371993E-02
  0.929687500       3.90625000E-02   9.99771059E-04   3.12441989E-04   1.50992684E-02
  0.945312500       3.90625000E-02   8.17618915E-04   4.75605542E-04   1.50715467E-02
  0.960937500       3.90625000E-02   5.52129699E-04   5.37059503E-04   1.50547493E-02
  0.976562500       3.90625000E-02   2.72731122E-04   4.61829710E-04   1.50491530E-02
  0.992187500       3.90625000E-02   6.96606148E-05   2.14995307E-04   1.50548462E-02
   7.81250000E-03   5.46875000E-02  -9.15373457E-05   1.90876890E-04   1.11716157E-02
   2.34375000E-02   5.46875000E-02  -4.31089458E-04   7.51939893E-04   1.11518968E-02
   3.90625000E-02   5.46875000E-02  -1.06031087E-03   1.31757115E-03   1.11356843E-02
   5.46875000E-02   5.46875000E-02  -1.93241658E-03   1.80653343E-03   1.11232353E-02
   7.03125000E-02   5.46875000E-02  -3.00104124E-03   2.19325256E-03   1.11148674E-02
   8.59375000E-02   5.46875000E-02  -4.22275905E-03   2.48144753E-03   1.11107724E-02
  0.101562500       5.46875000E-02  -5.55986259E-03   2.68760603E-03   1.11110294E-02
  0.117187500       5.46875000E-02  -6.98180962E-03   2.83157872E-03   1.11156413E-02
  0.132812500       5.46875000E-02  -8.46533384E-03   2.93182256E-03   1.11245699E-02
  0.148437500       5.46875000E-02  -9.99365561E-03   3.00341612E-03   1.11377798E-02
  0.164062500       5.46875000E-02  -1.15552535E-02   3.05760815E-03   1.11552812E-02
  0.179687500       5.46875000E-02  -1.31425187E-02   3.10211605E-03   1.11771412E-02
  0.195312500       5.46875000E-02  -1.47505077E-02   3.14171240E-03   1.12034986E-02
  0.210937500       5.46875000E-02  -1.63758695E-02   3.17885773E-03   1.12345656E-02
  0.226562500       5.46875000E-02  -1.80159882E-02   3.21426173E-03   1.12706227E-02
  0.242187500       5.46875000E-02  -1.96682904E-02   3.24732927E-03   1.13120032E-02
  0.257812500       5.46875000E-02  -2.13297345E-02   3.27649852E-03   1.13591012E-02
  0.273437500       5.46875000E-02  -2.29964051E-02   3.29947728E-03   1.14123709E-02
  0.289062500       5.46875000E-02  -2.46631987E-02   3.31341033E-03   1.14723090E-02
  0.304687500       5.46875000E-02  -2.63235830E-02   3.31498682E-03   1.15394592E-02
  0.320312500       5.46875000E-02  -2.79694423E-02   3.30055319E-03   1.16143506E-02
  0.335937500       5.46875000E-02  -2.95909457E-02   3.26617155E-03   1.16975643E-02
  0.351562500       5.46875000E-02  -3.11764553E-02   3.20771849E-03   1.17896758E-02
  0.367187500       5.46875000E-02  -3.27125266E-02   3.12097650E-03   1.18912160E-02
  0.382812500       5.46875000E-02  -3.41839530E-02   3.00174276E-03   1.20026805E-02
  0.398437500       5.46875000E-02  -3.55738327E-02   2.84595834E-03   1.21245142E-02
  0.414062500       5.46875000E-02  -3.68637741E-02   2.64988351E-03   1.22570414E-02
  0.429687500       5.46875000E-02  -3.80341150E-02   2.41024280E-03   1.24004977E-02
  0.445312500       5.46875000E-02  -3.90642434E-02   2.12443061E-03   1.25549240E-02
  0.460937500       5.46875000E-02  -3.99329960E-02   1.79071003E-03   1.27201825E-02
  0.476562500       5.46875000E-02  -4.06191312E-02   1.40842469E-03   1.28958598E-02
  0.492187500       5.46875000E-02  -4.11018804E-02   9.78206052E-04   1.30812936E-02
  0.507812500       5.46875000E-02  -4.13615257E-02   5.02173440E-04   1.32755041E-02
  0.523437500       5.46875000E-02  -4.13798988E-02  -1.59179835E-05   1.34772174E-02
  0.539062500       5.46875000E-02  -4.11407351E-02  -5.70532458E-04   1.36833750E-02
  0.554687500       5.46875000E-02  -4.06310521E-02  -1.15605642E-03   1.38920154E-02
  0.570312500       5.46875000E-02  -3.98425497E-02  -1.76278059E-03   1.41006261E-02
  0.585937500       5.46875000E-02  -3.87720391E-02  -2.37840996E-03   1.43063590E-02
  0.601562500       5.46875000E-02  -3.74219865E-02  -2.98876013E-03   1.45061910E-02
  0.617187500       5.46875000E-02  -3.58010381E-02  -3.57824890E-03   1.46969222E-02
  0.632812500       5.46875000E-02  -3.39243375E-02  -4.13042679E-03   1.48753654E-02
  0.648437500       5.46875000E-02  -3.18137184E-02  -4.62848926E-03   1.50384493E-02
  0.664062500       5.46875000E-02  -2.94976719E-02  -5.05597331E-03   1.51833501E-02
  0.679687500       5.46875000E-02  -2.70110779E-02  -5.39751770E-03   1.53076742E-02
  0.695312500       5.46875000E-02  -2.43946407E-02  -5.63969836E-03   1.54096270E-02
  0.710937500       5.46875000E-02  -2.16940437E-02  -5.77189960E-03   1.54880825E-02
  0.726562500       5.46875000E-02  -1.89587623E-02  -5.78714162E-03   1.55427102E-02
  0.742187500       5.46875000E-02  -1.62405521E-02  -5.68278087E-03   1.55740399E-02
  0.757812500       5.46875000E-02  -1.35916704E-02  -5.46097942E-03   1.55834081E-02
  0.773437500       5.46875000E-02  -1.10628903E-02  -5.12886792E-03   1.55729363E-02
  0.789062500       5.46875000E-02  -8.70142970E-03  -4.69830539E-03   1.55453859E-02
  0.804687500       5.46875000E-02  -6.54898211E-03  -4.18522861E-03   1.55040156E-02
  0.820312500       5.46875000E-02  -4.63998737E-03  -3.60866194E-03   1.54523579E-02
  0.835937500       5.46875000E-02  -3.00030410E-03  -2.98949750E-03   1.53940544E-02
  0.851562500       5.46875000E-02  -1.64634443E-03  -2.34927703E-03   1.53326243E-02
  0.867187500       5.46875000E-02  -5.84624475E-04  -1.70918670E-03   1.52713470E-02
  0.882812500       5.46875000E-02   1.88106467E-04  -1.08973915E-03   1.52131552E-02
  0.898437500       5.46875000E-02   6.84450555E-04  -5.14280167E-04   1.51604414E-02
  0.914062500       5.46875000E-02   9.28355847E-04  -6.28108137E-06   1.51150767E-02
  0.929687500       5.46875000E-02   9.55640920E-04   4.09271743E-04   1.50785819E-02
  0.945312500       5.46875000E-02   8.13521270E-04   7.00620352E-04   1.50520131E-02
  0.960937500       5.46875000E-02   5.62983856E-04   8.25646217E-04   1.50360502E-02
  0.976562500       5.46875000E-02   2.82145775E-04   7.31050386E-04   1.50310881E-02
  0.992187500       5.46875000E-02   7.25593782E-05   3.56386008E-04   1.50374938E-02
   7.81250000E-03   7.03125000E-02  -1.26934829E-04   4.07947140E-04   1.11865262E-02
   2.34375000E-02   7.03125000E-02  -5.81503322E-04   1.32582232E-03   1.11612659E-02
   3.90625000E-02   7.03125000E-02  -1.39632099E-03   2.18420010E-03   1.11422613E-02
   5.46875000E-02   7.03125000E-02  -2.49622529E-03   2.90839421E-03   1.11288987E-02
   7.03125000E-02   7.03125000E-02  -3.81862884E-03   3.47891310E-03   1.11207478E-02
   8.59375000E-02   7.03125000E-02  -5.31139318E-03   3.90677992E-03   1.11174453E-02
  0.101562500       7.03125000E-02  -6.93214266E-03   4.21665004E-03   1.11186858E-02
  0.117187500       7.03125000E-02  -8.64761416E-03   4.43649106E-03   1.11242346E-02
  0.132812500       7.03125000E-02  -1.04326624E-02   4.59204707E-03   1.11339157E-02
  0.148437500       7.03125000E-02  -1.22689717E-02   4.70441533E-03   1.11476257E-02
  0.164062500       7.03125000E-02  -1.41435964E-02   4.78945253E-03   1.11653525E-02
  0.179687500       7.03125000E-02  -1.60475448E-02   4.85813757E-03   1.11871641E-02
  0.195312500       7.03125000E-02  -1.79745071E-02   4.91732359E-03   1.12131964E-02
  0.210937500       7.03125000E-02  -1.99197568E-02   4.97057475E-03   1.12436833E-02
  0.226562500       7.03125000E-02  -2.18792669E-02   5.01892064E-03   1.12789106E-02
  0.242187500       7.03125000E-02  -2.38489844E-02   5.06148301E-03   1.13192238E-02
  0.257812500       7.03125000E-02  -2.58242954E-02   5.09593822E-03   1.13650179E-02
  0.273437500       7.03125000E-02  -2.77995933E-02   5.11888182E-03   1.14167416E-02
  0.289062500       7.03125000E-02  -2.97679417E-02   5.12605952E-03   1.14749065E-02
  0.304687500       7.03125000E-02  -3.17208283E-02   5.11257071E-03   1.15400571E-02
  0.320312500       7.03125000E-02  -3.36480066E-02   5.07300999E-03   1.16127282E-02
  0.335937500       7.03125000E-02  -3.55373695E-02   5.00161201E-03   1.16935149E-02
  0.351562500       7.03125000E-02  -3.73748839E-02   4.89238277E-03   1.17830131E-02
  0.367187500       7.03125000E-02  -3.91446501E-02   4.73926496E-03   1.18817762E-02
  0.382812500       7.03125000E-02  -4.08289395E-02   4.53630881E-03   1.19903330E-02
  0.398437500       7.03125000E-02  -4.24083546E-02   4.27786773E-03   1.21091902E-02
  0.414062500       7.03125000E-02  -4.38620672E-02   3.95882549E-03   1.22387102E-02
  0.429687500       7.03125000E-02  -4.51680869E-02   3.57486308E-03   1.23792114E-02
  0.445312500       7.03125000E-02  -4.63036448E-02   3.12270364E-03   1.25307962E-02
  0.460937500       7.03125000E-02  -4.72456291E-02   2.60038441E-03   1.26934256E-02
  0.476562500       7.03125000E-02  -4.79710773E-02   2.00755568E-03   1.28667690E-02
  0.492187500       7.03125000E-02  -4.84577492E-02   1.34571397E-03   1.30502526E-02
  0.507812500       7.03125000E-02  -4.86847162E-02   6.18472754E-04   1.32429693E-02
  0.523437500       7.03125000E-02  -4.86329868E-02  -1.68409315E-04   1.34436749E-02
  0.539062500       7.03125000E-02  -4.82861102E-02  -1.00694131E-03   1.36491451E-02
  0.554687500       7.03125000E-02  -4.76317815E-02  -1.88654847E-03   1.38577223E-02
  0.570312500       7.03125000E-02  -4.66630198E-02  -2.79248226E-03   1.40668210E-02
  0.585937500       7.03125000E-02  -4.53782827E-02  -3.70692299E-03   1.42735559E-02
  0.601562500       7.03125000E-02  -4.37818915E-02  -4.60966770E-03   1.44748185E-02
  0.617187500       7.03125000E-02  -4.18844931E-02  -5.47869131E-03   1.46672707E-02
  0.632812500       7.03125000E-02  -3.97034138E-02  -6.29079808E-03   1.48476455E-02
  0.648437500       7.03125000E-02  -3.72628570E-02  -7.02233426E-03   1.50127113E-02
  0.664062500       7.03125000E-02  -3.45939845E-02  -7.65008852E-03   1.51595138E-02
  0.679687500       7.03125000E-02  -3.17347534E-02  -8.15227441E-03   1.52855162E-02
  0.695312500       7.03125000E-02  -2.87294891E-02  -8.50967783E-03   1.53887765E-02
  0.710937500       7.03125000E-02  -2.56281421E-02  -8.70687608E-03   1.54680666E-02
  0.726562500       7.03125000E-02  -2.24851854E-02  -8.73339176E-03   1.55229811E-02
  0.742187500       7.03125000E-02  -1.93580985E-02  -8.58477689E-03   1.55540397E-02
  0.757812500       7.03125000E-02  -1.63054839E-02  -8.26337934E-03   1.55625967E-02
  0.773437500       7.03125000E-02  -1.33848637E-02  -7.77871767E-03   1.55508574E-02
  0.789062500       7.03125000E-02  -1.06502678E-02  -7.14730751E-03   1.55217331E-02
  0.804687500       7.03125000E-02  -8.14981759E-03  -6.39186241E-03   1.54786371E-02
  0.820312500       7.03125000E-02  -5.92354871E-03  -5.53997234E-03   1.54252779E-02
  0.835937500       7.03125000E-02  -4.00166446E-03  -4.62238397E-03   1.53654497E-02
  0.851562500       7.03125000E-02  -2.40337383E-03  -3.67122167E-03   1.53028211E-02
  0.867187500       7.03125000E-02  -1.13633473E-03  -2.71853339E-03   1.52407335E-02
  0.882812500       7.03125000E-02  -1.96483830E-04  -1.79546932E-03   1.51820863E-02
  0.898437500       7.03125000E-02   4.30756132E-04  -9.34603624E-04   1.51292859E-02
  0.914062500       7.03125000E-02   7.72109022E-04  -1.73664768E-04   1.50841512E-02
  0.929687500       7.03125000E-02   8.67558760E-04   4.51490225E-04   1.50480038E-02
  0.945312500       7.03125000E-02   7.69296545E-04   8.96365149E-04   1.50218178E-02
  0.960937500       7.03125000E-02   5.43731730E-04   1.10358489E-03   1.50062097E-02
  0.976562500       7.03125000E-02   2.75022845E-04   1.00023777E-03   1.50015429E-02
  0.992187500       7.03125000E-02   7.08254738E-05   4.98951413E-04   1.50080826E-02
   7.81250000E-03   8.59375000E-02  -1.57930408E-04   6.91412541E-04   1.11941332E-02
   2.34375000E-02   8.59375000E-02  -7.15162372E-04   2.05098791E-03   1.11636762E-02
   3.90625000E-02   8.59375000E-02  -1.69804064E-03   3.25319311E-03   1.11417174E-02
   5.46875000E-02   8.59375000E-02  -3.00509855E-03   4.24283603E-03   1.11270286E-02
   7.03125000E-02   8.59375000E-02  -4.55735996E-03   5.01562469E-03   1.11185890E-02
   8.59375000E-02   8.59375000E-02  -6.29341602E-03   5.59538975E-03   1.11155733E-02
  0.101562500       8.59375000E-02  -8.16599838E-03   6.01788703E-03   1.11173512E-02
  0.117187500       8.59375000E-02  -1.01393312E-02   6.32059295E-03   1.11234393E-02
  0.132812500       8.59375000E-02  -1.21868849E-02   6.53710868E-03   1.11335218E-02
  0.148437500       8.59375000E-02  -1.42893717E-02   6.69473596E-03   1.11474060E-02
  0.164062500       8.59375000E-02  -1.64329708E-02   6.81396481E-03   1.11650396E-02
  0.179687500       8.59375000E-02  -1.86077487E-02   6.90899510E-03   1.11864675E-02
  0.195312500       8.59375000E-02  -2.08063554E-02   6.98871119E-03   1.12118237E-02
  0.210937500       8.59375000E-02  -2.30229218E-02   7.05771148E-03   1.12413345E-02
  0.226562500       8.59375000E-02  -2.52521597E-02   7.11727329E-03   1.12752942E-02
  0.242187500       8.59375000E-02  -2.74886638E-02   7.16614258E-03   1.13140456E-02
  0.257812500       8.59375000E-02  -2.97263674E-02   7.20113469E-03   1.13580022E-02
  0.273437500       8.59375000E-02  -3.19581069E-02   7.21760606E-03   1.14076100E-02
  0.289062500       8.59375000E-02  -3.41752991E-02   7.20979460E-03   1.14633897E-02
  0.304687500       8.59375000E-02  -3.63676958E-02   7.17108790E-03   1.15258964E-02
  0.320312500       8.59375000E-02  -3.85232344E-02   7.09422445E-03   1.15956999E-02
  0.335937500       8.59375000E-02  -4.06279415E-02   6.97151944E-03   1.16734039E-02
  0.351562500       8.59375000E-02  -4.26659137E-02   6.79506455E-03   1.17596406E-02
  0.367187500       8.59375000E-02  -4.46193591E-02   6.55693468E-03   1.18550062E-02
  0.382812500       8.59375000E-02  -4.64687198E-02   6.24946039E-03   1.19600929E-02
  0.398437500       8.59375000E-02  -4.81928736E-02   5.86548913E-03   1.20754614E-02
  0.414062500       8.59375000E-02  -4.97693866E-02   5.39865205E-03   1.22016016E-02