 VARIABLES="X","Y","U","V","P"
 ZONE F=POINT, I=          64 , J=          64
   7.81250000E-03   7.81250000E-03   5.40684923E-05  -5.41613881E-05   2.42201611E-02
   2.34375000E-02   7.81250000E-03   2.74506980E-04  -1.66498197E-04   2.42352672E-02
   3.90625000E-02   7.81250000E-03   6.54846895E-04  -2.14096915E-04   2.42227055E-02
   5.46875000E-02   7.81250000E-03   1.07692438E-03  -2.08235870E-04   2.41731945E-02
   7.03125000E-02   7.81250000E-03   1.45480596E-03  -1.69898631E-04   2.40873881E-02
   8.59375000E-02   7.81250000E-03   1.74011628E-03  -1.15661969E-04   2.39698403E-02
  0.101562500       7.81250000E-03   1.91161456E-03  -5.60843982E-05   2.38257796E-02
  0.117187500       7.81250000E-03   1.96430460E-03   3.14794170E-06   2.36594994E-02
  0.132812500       7.81250000E-03   1.90111040E-03   5.97985527E-05   2.34739687E-02
  0.148437500       7.81250000E-03   1.72779558E-03   1.13268965E-04   2.32708342E-02
  0.164062500       7.81250000E-03   1.44905702E-03   1.65225661E-04   2.30504945E-02
  0.179687500       7.81250000E-03   1.06701022E-03   2.16579327E-04   2.28128657E-02
  0.195312500       7.81250000E-03   5.80333115E-04   2.69854150E-04   2.25574356E-02
  0.210937500       7.81250000E-03  -1.54300360E-05   3.25666100E-04   2.22845301E-02
  0.226562500       7.81250000E-03  -7.25794001E-04   3.84458253E-04   2.19944138E-02
  0.242187500       7.81250000E-03  -1.55715365E-03   4.46665799E-04   2.16886904E-02
  0.257812500       7.81250000E-03  -2.51587480E-03   5.11825783E-04   2.13696696E-02
  0.273437500       7.81250000E-03  -3.60692386E-03   5.79000684E-04   2.10407451E-02
  0.289062500       7.81250000E-03  -4.83307475E-03   6.46934262E-04   2.07064543E-02
  0.304687500       7.81250000E-03  -6.19435031E-03   7.14134076E-04   2.03725081E-02
  0.320312500       7.81250000E-03  -7.68760126E-03   7.78915419E-04   2.00457722E-02
  0.335937500       7.81250000E-03  -9.30616818E-03   8.39450804E-04   1.97342504E-02
  0.351562500       7.81250000E-03  -1.10396193E-02   8.93800170E-04   1.94469783E-02
  0.367187500       7.81250000E-03  -1.28735611E-02   9.39947437E-04   1.91939026E-02
  0.382812500       7.81250000E-03  -1.47895524E-02   9.75853298E-04   1.89856812E-02
  0.398437500       7.81250000E-03  -1.67650878E-02   9.99487587E-04   1.88334305E-02
  0.414062500       7.81250000E-03  -1.87736601E-02   1.00889336E-03   1.87484175E-02
  0.429687500       7.81250000E-03  -2.07849517E-02   1.00221322E-03   1.87416822E-02
  0.445312500       7.81250000E-03  -2.27650963E-02   9.77746095E-04   1.88236348E-02
  0.460937500       7.81250000E-03  -2.46769954E-02   9.33967181E-04   1.90035850E-02
  0.476562500       7.81250000E-03  -2.64807045E-02   8.69559357E-04   1.92892533E-02
  0.492187500       7.81250000E-03  -2.81338692E-02   7.83419469E-04   1.96862295E-02
  0.507812500       7.81250000E-03  -2.95921825E-02   6.74701761E-04   2.01974139E-02
  0.523437500       7.81250000E-03  -3.08099426E-02   5.42865600E-04   2.08224058E-02
  0.539062500       7.81250000E-03  -3.17410156E-02   3.88008106E-04   2.15568058E-02
  0.554687500       7.81250000E-03  -3.23411152E-02   2.11883613E-04   2.23914161E-02
  0.570312500       7.81250000E-03  -3.25735770E-02   2.03626532E-05   2.33114194E-02
  0.585937500       7.81250000E-03  -3.24138217E-02  -1.80337738E-04   2.42891163E-02
  0.601562500       7.81250000E-03  -3.18301842E-02  -4.03524667E-04   2.52979156E-02
  0.617187500       7.81250000E-03  -3.07855830E-02  -6.41312567E-04   2.63132155E-02
  0.632812500       7.81250000E-03  -2.92604640E-02  -8.84048699E-04   2.73053981E-02
  0.648437500       7.81250000E-03  -2.72548348E-02  -1.12182600E-03   2.82420162E-02
  0.664062500       7.81250000E-03  -2.47891024E-02  -1.34415389E-03   2.90896706E-02
  0.679687500       7.81250000E-03  -2.19053701E-02  -1.53983163E-03   2.98160240E-02
  0.695312500       7.81250000E-03  -1.86685771E-02  -1.69721467E-03   3.03920843E-02
  0.710937500       7.81250000E-03  -1.51668731E-02  -1.80473947E-03   3.07946168E-02
  0.726562500       7.81250000E-03  -1.15106311E-02  -1.85175554E-03   3.10085602E-02
  0.742187500       7.81250000E-03  -7.82954320E-03  -1.82958518E-03   3.10290866E-02
  0.757812500       7.81250000E-03  -4.26772935E-03  -1.73247990E-03   3.08630131E-02
  0.773437500       7.81250000E-03  -9.77972755E-04  -1.55752199E-03   3.05292383E-02
  0.789062500       7.81250000E-03   1.87989278E-03  -1.30058813E-03   3.00632231E-02
  0.804687500       7.81250000E-03   4.17493517E-03  -9.94696631E-04   2.95071676E-02
  0.820312500       7.81250000E-03   5.83940279E-03  -6.70006499E-04   2.89028510E-02
  0.835937500       7.81250000E-03   6.86016539E-03  -3.50980466E-04   2.82915980E-02
  0.851562500       7.81250000E-03   7.27392547E-03  -6.29941496E-05   2.77103800E-02
  0.867187500       7.81250000E-03   7.16133881E-03   1.75372348E-04   2.71878317E-02
  0.882812500       7.81250000E-03   6.62654685E-03   3.59215192E-04   2.67428719E-02
  0.898437500       7.81250000E-03   5.77642303E-03   4.90706123E-04   2.63831578E-02
  0.914062500       7.81250000E-03   4.71217837E-03   5.73335565E-04   2.61103101E-02
  0.929687500       7.81250000E-03   3.53080500E-03   6.07840891E-04   2.59222351E-02
  0.945312500       7.81250000E-03   2.33460520E-03   5.88165713E-04   2.58145966E-02
  0.960937500       7.81250000E-03   1.24802068E-03   4.98225098E-04   2.57803537E-02
  0.976562500       7.81250000E-03   4.32785135E-04   3.16814199E-04   2.58054640E-02
  0.992187500       7.81250000E-03   5.79356492E-05   5.78745021E-05   2.58582700E-02
   7.81250000E-03   2.34375000E-02   1.67599384E-04  -2.76051287E-04   2.42050178E-02
   2.34375000E-02   2.34375000E-02   6.82143145E-04  -6.80101861E-04   2.42200159E-02
   3.90625000E-02   2.34375000E-02   1.43584760E-03  -8.35114159E-04   2.42042579E-02
   5.46875000E-02   2.34375000E-02   2.21649697E-03  -7.90519989E-04   2.41555236E-02
   7.03125000E-02   2.34375000E-02   2.86849588E-03  -6.18064543E-04   2.40750592E-02
   8.59375000E-02   2.34375000E-02   3.29195242E-03  -3.76827462E-04   2.39663366E-02
  0.101562500       2.34375000E-02   3.43133369E-03  -1.06364299E-04   2.38333419E-02
  0.117187500       2.34375000E-02   3.26140854E-03   1.70094907E-04   2.36794129E-02
  0.132812500       2.34375000E-02   2.77527189E-03   4.41621116E-04   2.35068332E-02
  0.148437500       2.34375000E-02   1.97570259E-03   7.03772996E-04   2.33169720E-02
  0.164062500       2.34375000E-02   8.65920796E-04   9.62690101E-04   2.31099762E-02
  0.179687500       2.34375000E-02  -5.53596648E-04   1.22013374E-03   2.28859745E-02
  0.195312500       2.34375000E-02  -2.28340598E-03   1.48223876E-03   2.26438791E-02
  0.210937500       2.34375000E-02  -4.32820525E-03   1.75329810E-03   2.23844051E-02
  0.226562500       2.34375000E-02  -6.69605751E-03   2.03450327E-03   2.21079029E-02
  0.242187500       2.34375000E-02  -9.39384475E-03   2.32523819E-03   2.18156148E-02
  0.257812500       2.34375000E-02  -1.24245556E-02   2.62216851E-03   2.15096436E-02
  0.273437500       2.34375000E-02  -1.57854799E-02   2.92012654E-03   2.11930852E-02
  0.289062500       2.34375000E-02  -1.94666814E-02   3.21267173E-03   2.08701249E-02
  0.304687500       2.34375000E-02  -2.34499685E-02   3.49248992E-03   2.05460861E-02
  0.320312500       2.34375000E-02  -2.77083069E-02   3.75169353E-03   2.02274472E-02
  0.335937500       2.34375000E-02  -3.22056003E-02   3.98207922E-03   1.99218299E-02
  0.351562500       2.34375000E-02  -3.68967764E-02   4.17535054E-03   1.96379162E-02
  0.367187500       2.34375000E-02  -4.17281985E-02   4.32332000E-03   1.93853490E-02
  0.382812500       2.34375000E-02  -4.66383025E-02   4.41813935E-03   1.91745255E-02
  0.398437500       2.34375000E-02  -5.15584685E-02   4.45246371E-03   1.90163944E-02
  0.414062500       2.34375000E-02  -5.64140603E-02   4.41964855E-03   1.89220905E-02
  0.429687500       2.34375000E-02  -6.11256026E-02   4.31387313E-03   1.89026315E-02
  0.445312500       2.34375000E-02  -6.56100810E-02   4.13029175E-03   1.89684611E-02
  0.460937500       2.34375000E-02  -6.97822571E-02   3.86507623E-03   1.91290081E-02
  0.476562500       2.34375000E-02  -7.35560209E-02   3.51550733E-03   1.93921831E-02
  0.492187500       2.34375000E-02  -7.68458098E-02   3.08001693E-03   1.97638515E-02
  0.507812500       2.34375000E-02  -7.95681402E-02   2.55831890E-03   2.02472806E-02
  0.523437500       2.34375000E-02  -8.16432536E-02   1.95169391E-03   2.08425913E-02
  0.539062500       2.34375000E-02  -8.29974264E-02   1.26397330E-03   2.15462111E-02
  0.554687500       2.34375000E-02  -8.35664570E-02   5.04585216E-04   2.23503243E-02
  0.570312500       2.34375000E-02  -8.33059847E-02  -3.00817948E-04   2.32405234E-02
  0.585937500       2.34375000E-02  -8.21517110E-02  -1.17368193E-03   2.41780020E-02
  0.601562500       2.34375000E-02  -8.00379962E-02  -2.10804655E-03   2.51494907E-02
  0.617187500       2.34375000E-02  -7.69446567E-02  -3.07525508E-03   2.61286311E-02
  0.632812500       2.34375000E-02  -7.28776604E-02  -4.04276513E-03   2.70861108E-02
  0.648437500       2.34375000E-02  -6.78707361E-02  -4.97622415E-03   2.79903337E-02
  0.664062500       2.34375000E-02  -6.19876347E-02  -5.83913922E-03   2.88089365E-02
  0.679687500       2.34375000E-02  -5.53239211E-02  -6.59286371E-03   2.95106582E-02
  0.695312500       2.34375000E-02  -4.80081365E-02  -7.19733583E-03   3.00676264E-02
  0.710937500       2.34375000E-02  -4.02024165E-02  -7.61261303E-03   3.04576941E-02
  0.726562500       2.34375000E-02  -3.21019068E-02  -7.80121144E-03   3.06668431E-02
  0.742187500       2.34375000E-02  -2.39324346E-02  -7.73126492E-03   3.06911916E-02
  0.757812500       2.34375000E-02  -1.59456078E-02  -7.38000404E-03   3.05383801E-02
  0.773437500       2.34375000E-02  -8.41001514E-03  -6.73590461E-03   3.02279331E-02
  0.789062500       2.34375000E-02  -1.59569248E-03  -5.79494610E-03   2.97901537E-02
  0.804687500       2.34375000E-02   4.20051906E-03  -4.59213043E-03   2.92783827E-02
  0.820312500       2.34375000E-02   8.73722322E-03  -3.27426102E-03   2.87237503E-02
  0.835937500       2.34375000E-02   1.19180158E-02  -1.94877991E-03   2.81626135E-02
  0.851562500       2.34375000E-02   1.37508530E-02  -7.12279696E-04   2.76303403E-02
  0.867187500       2.34375000E-02   1.43354088E-02   3.52215429E-04   2.71533616E-02
  0.882812500       2.34375000E-02   1.38519183E-02   1.20019191E-03   2.67476756E-02
  0.898437500       2.34375000E-02   1.25202499E-02   1.83106633E-03   2.64197849E-02
  0.914062500       2.34375000E-02   1.05663715E-02   2.25064764E-03   2.61700116E-02
  0.929687500       2.34375000E-02   8.22134502E-03   2.45648273E-03   2.59951055E-02
  0.945312500       2.34375000E-02   5.73084131E-03   2.42578611E-03   2.58897468E-02
  0.960937500       2.34375000E-02   3.37025546E-03   2.10733199E-03   2.58471258E-02
  0.976562500       2.34375000E-02   1.45485229E-03   1.43789884E-03   2.58582793E-02
  0.992187500       2.34375000E-02   3.25228291E-04   4.40888631E-04   2.59110015E-02
   7.81250000E-03   3.90625000E-02   2.18827699E-04  -6.62734208E-04   2.42176354E-02
   2.34375000E-02   3.90625000E-02   8.46292009E-04  -1.43600407E-03   2.42347643E-02
   3.90625000E-02   3.90625000E-02   1.69425481E-03  -1.68151641E-03   2.42175721E-02
   5.46875000E-02   3.90625000E-02   2.49277079E-03  -1.52391824E-03   2.41683703E-02
   7.03125000E-02   3.90625000E-02   3.05564189E-03  -1.10016961E-03   2.40901820E-02
   8.59375000E-02   3.90625000E-02   3.25949048E-03  -5.22659393E-04   2.39867810E-02
  0.101562500       3.90625000E-02   3.02667590E-03   1.32266738E-04   2.38618031E-02
  0.117187500       3.90625000E-02   2.31610052E-03   8.11332429E-04   2.37178523E-02
  0.132812500       3.90625000E-02   1.11069588E-03   1.49129948E-03   2.35566162E-02
  0.148437500       3.90625000E-02  -5.94437821E-04   2.15817336E-03   2.33794916E-02
  0.164062500       3.90625000E-02  -2.79423315E-03   2.81724520E-03   2.31849533E-02
  0.179687500       3.90625000E-02  -5.48463780E-03   3.47488560E-03   2.29732748E-02
  0.195312500       3.90625000E-02  -8.66709743E-03   4.13914118E-03   2.27436256E-02
  0.210937500       3.90625000E-02  -1.23428302E-02   4.81631793E-03   2.24958025E-02
  0.226562500       3.90625000E-02  -1.65100787E-02   5.50598651E-03   2.22299844E-02
  0.242187500       3.90625000E-02  -2.11615171E-02   6.20239088E-03   2.19470505E-02
  0.257812500       3.90625000E-02  -2.62813717E-02   6.89500291E-03   2.16487460E-02
  0.273437500       3.90625000E-02  -3.18434946E-02   7.56977499E-03   2.13377848E-02
  0.289062500       3.90625000E-02  -3.78101766E-02   8.21036659E-03   2.10179780E-02
  0.304687500       3.90625000E-02  -4.41317447E-02   8.79912730E-03   2.06943043E-02
  0.320312500       3.90625000E-02  -5.07467687E-02   9.31790750E-03   2.03729458E-02
  0.335937500       3.90625000E-02  -5.75828403E-02   9.74872150E-03   2.00613048E-02
  0.351562500       3.90625000E-02  -6.45577610E-02   1.00743016E-02   1.97679438E-02
  0.367187500       3.90625000E-02  -7.15810210E-02   1.02785556E-02   1.95024926E-02
  0.382812500       3.90625000E-02  -7.85555243E-02   1.03470199E-02   1.92754343E-02
  0.398437500       3.90625000E-02  -8.53793770E-02   1.02671236E-02   1.90979131E-02
  0.414062500       3.90625000E-02  -9.19477865E-02   1.00285057E-02   1.89813636E-02
  0.429687500       3.90625000E-02  -9.81548503E-02   9.62315314E-03   1.89371891E-02
  0.445312500       3.90625000E-02 -0.103895359       9.04553384E-03   1.89762842E-02
  0.460937500       3.90625000E-02 -0.109066427       8.29260703E-03   1.91085916E-02
  0.476562500       3.90625000E-02 -0.113569066       7.36390846E-03   1.93425883E-02
  0.492187500       3.90625000E-02 -0.117309690       6.26157131E-03   1.96847431E-02
  0.507812500       3.90625000E-02 -0.120201595       4.99053439E-03   2.01390162E-02
  0.523437500       3.90625000E-02 -0.122166581       3.55909765E-03   2.07063779E-02
  0.539062500       3.90625000E-02 -0.123136222       1.97988003E-03   2.13845950E-02
  0.554687500       3.90625000E-02 -0.123050243       2.71222554E-04   2.21690647E-02
  0.570312500       3.90625000E-02 -0.121837571      -1.54110417E-03   2.30219178E-02
  0.585937500       3.90625000E-02 -0.119445972      -3.47982068E-03   2.39338353E-02
  0.601562500       3.90625000E-02 -0.115865439      -5.49671333E-03   2.48830933E-02
  0.617187500       3.90625000E-02 -0.111107372      -7.53857009E-03   2.58435216E-02
  0.632812500       3.90625000E-02 -0.105206564      -9.54785198E-03   2.67857611E-02
  0.648437500       3.90625000E-02  -9.82221067E-02  -1.14631485E-02   2.76782997E-02
  0.664062500       3.90625000E-02  -9.02390257E-02  -1.32190203E-02   2.84888707E-02
  0.679687500       3.90625000E-02  -8.13701153E-02  -1.47462413E-02   2.91863140E-02
  0.695312500       3.90625000E-02  -7.17576668E-02  -1.59728359E-02   2.97427550E-02
  0.710937500       3.90625000E-02  -6.15748763E-02  -1.68262646E-02   3.01359929E-02
  0.726562500       3.90625000E-02  -5.10267988E-02  -1.72367916E-02   3.03518698E-02
  0.742187500       3.90625000E-02  -4.03501838E-02  -1.71424113E-02   3.03863585E-02
  0.757812500       3.90625000E-02  -2.98114941E-02  -1.64950117E-02   3.02470960E-02
  0.773437500       3.90625000E-02  -1.97015330E-02  -1.52670750E-02   2.99538728E-02
  0.789062500       3.90625000E-02  -1.03236493E-02  -1.34565858E-02   2.95379125E-02
  0.804687500       3.90625000E-02  -1.96655910E-03  -1.10843759E-02   2.90397797E-02
  0.820312500       3.90625000E-02   5.02932118E-03  -8.31516273E-03   2.85150558E-02
  0.835937500       3.90625000E-02   1.03715919E-02  -5.43149095E-03   2.79853791E-02
  0.851562500       3.90625000E-02   1.39624728E-02  -2.65383278E-03   2.74846051E-02
  0.867187500       3.90625000E-02   1.58412158E-02  -1.70054613E-04   2.70407163E-02
  0.882812500       3.90625000E-02   1.61682144E-02   1.87844213E-03   2.66685188E-02
  0.898437500       3.90625000E-02   1.52035337E-02   3.44866281E-03   2.63707582E-02
  0.914062500       3.90625000E-02   1.32480618E-02   4.54190746E-03   2.61456966E-02
  0.929687500       3.90625000E-02   1.06134806E-02   5.14433347E-03   2.59883702E-02
  0.945312500       3.90625000E-02   7.63111655E-03   5.21030277E-03   2.58925706E-02
  0.960937500       3.90625000E-02   4.66403458E-03   4.64998558E-03   2.58527119E-02
  0.976562500       3.90625000E-02   2.12459383E-03   3.34959337E-03   2.58654412E-02
  0.992187500       3.90625000E-02   5.08522789E-04   1.27446605E-03   2.59318277E-02
   7.81250000E-03   5.46875000E-02   2.14922009E-04  -1.09673932E-03   2.42688842E-02
   2.34375000E-02   5.46875000E-02   7.97140354E-04  -2.21225689E-03   2.42828205E-02
   3.90625000E-02   5.46875000E-02   1.50644989E-03  -2.46316846E-03   2.42615771E-02
   5.46875000E-02   5.46875000E-02   2.04734015E-03  -2.08230573E-03   2.42094547E-02
   7.03125000E-02   5.46875000E-02   2.22231401E-03  -1.28026388E-03   2.41308156E-02
   8.59375000E-02   5.46875000E-02   1.89819292E-03  -2.22928240E-04   2.40300912E-02
  0.101562500       5.46875000E-02   9.88617190E-04   9.74293333E-04   2.39100419E-02
  0.117187500       5.46875000E-02  -5.52494603E-04   2.22036662E-03   2.37741601E-02
  0.132812500       5.46875000E-02  -2.73912959E-03   3.47367930E-03   2.36225147E-02
  0.148437500       5.46875000E-02  -5.57235070E-03   4.71352134E-03   2.34553628E-02
  0.164062500       5.46875000E-02  -9.05097649E-03   5.93969086E-03   2.32715048E-02
  0.179687500       5.46875000E-02  -1.31702702E-02   7.16151670E-03   2.30698735E-02
  0.195312500       5.46875000E-02  -1.79219861E-02   8.38606525E-03   2.28492226E-02
  0.210937500       5.46875000E-02  -2.32924074E-02   9.61493514E-03   2.26086639E-02
  0.226562500       5.46875000E-02  -2.92593539E-02   1.08409673E-02   2.23478340E-02
  0.242187500       5.46875000E-02  -3.57899368E-02   1.20488452E-02   2.20670998E-02
  0.257812500       5.46875000E-02  -4.28388566E-02   1.32167432E-02   2.17677373E-02
  0.273437500       5.46875000E-02  -5.03476523E-02   1.43183861E-02   2.14520711E-02
  0.289062500       5.46875000E-02  -5.82448468E-02   1.53250881E-02   2.11235862E-02
  0.304687500       5.46875000E-02  -6.64468557E-02   1.62074603E-02   2.07870640E-02
  0.320312500       5.46875000E-02  -7.48595297E-02   1.69367455E-02   2.04486120E-02
  0.335937500       5.46875000E-02  -8.33799690E-02   1.74858831E-02   2.01156959E-02
  0.351562500       5.46875000E-02  -9.18987244E-02   1.78303197E-02   1.97971091E-02
  0.367187500       5.46875000E-02 -0.100302048       1.79486386E-02   1.95028409E-02
  0.382812500       5.46875000E-02 -0.108474113       1.78230181E-02   1.92438569E-02
  0.398437500       5.46875000E-02 -0.116299130       1.74395200E-02   1.90319084E-02
  0.414062500       5.46875000E-02 -0.123663329       1.67882387E-02   1.88791044E-02
  0.429687500       5.46875000E-02 -0.130456686       1.58633739E-02   1.87975653E-02
  0.445312500       5.46875000E-02 -0.136574447       1.46631207E-02   1.87989250E-02
  0.460937500       5.46875000E-02 -0.141918391       1.31895663E-02   1.88938808E-02
  0.476562500       5.46875000E-02 -0.146397844       1.14485677E-02   1.90916155E-02
  0.492187500       5.46875000E-02 -0.149930418       9.44964867E-03   1.93993151E-02
  0.507812500       5.46875000E-02 -0.152442575       7.20606837E-03   1.98216550E-02
  0.523437500       5.46875000E-02 -0.153869778       4.73527610E-03   2.03602873E-02
  0.539062500       5.46875000E-02 -0.154156849       2.05992954E-03   2.10133158E-02
  0.554687500       5.46875000E-02 -0.153262228      -7.89929356E-04   2.17734426E-02
  0.570312500       5.46875000E-02 -0.151137888      -3.81747982E-03   2.25985348E-02
  0.585937500       5.46875000E-02 -0.147759035      -6.97443169E-03   2.34915148E-02
  0.601562500       5.46875000E-02 -0.143145710      -1.01964865E-02   2.44280845E-02
  0.617187500       5.46875000E-02 -0.137330592      -1.34125603E-02   2.53814422E-02
  0.632812500       5.46875000E-02 -0.130360231      -1.65456161E-02   2.63219364E-02
  0.648437500       5.46875000E-02 -0.122298062      -1.95126235E-02   2.72178836E-02
  0.664062500       5.46875000E-02 -0.113226980      -2.22243294E-02   2.80367993E-02
  0.679687500       5.46875000E-02 -0.103251927      -2.45855227E-02   2.87472028E-02
  0.695312500       5.46875000E-02  -9.25024003E-02  -2.64961757E-02   2.93206908E-02
  0.710937500       5.46875000E-02  -8.11349079E-02  -2.78538391E-02   2.97343507E-02
  0.726562500       5.46875000E-02  -6.93352222E-02  -2.85576209E-02   2.99731009E-02
  0.742187500       5.46875000E-02  -5.73198497E-02  -2.85142176E-02   3.00318748E-02
  0.757812500       5.46875000E-02  -4.53362688E-02  -2.76461169E-02   2.99172867E-02
  0.773437500       5.46875000E-02  -3.36607881E-02  -2.59020291E-02   2.96483077E-02
  0.789062500       5.46875000E-02  -2.25917380E-02  -2.32691579E-02   2.92557068E-02
  0.804687500       5.46875000E-02  -1.24344733E-02  -1.97867416E-02   2.87797730E-02
  0.820312500       5.46875000E-02  -3.47669376E-03  -1.55670289E-02   2.82660276E-02
  0.835937500       5.46875000E-02   3.93668003E-03  -1.09358188E-02   2.77590528E-02
  0.851562500       5.46875000E-02   9.47683305E-03  -6.28107507E-03   2.72805318E-02
  0.867187500       5.46875000E-02   1.30308792E-02  -1.97611959E-03   2.68586911E-02
  0.882812500       5.46875000E-02   1.46833537E-02   1.70452788E-03   2.65126005E-02
  0.898437500       5.46875000E-02   1.46711506E-02   4.59896307E-03   2.62426026E-02
  0.914062500       5.46875000E-02   1.33305546E-02   6.68718014E-03   2.60421932E-02
  0.929687500       5.46875000E-02   1.10250339E-02   7.93866534E-03   2.59048343E-02
  0.945312500       5.46875000E-02   8.13995581E-03   8.28291010E-03   2.58230977E-02
  0.960937500       5.46875000E-02   5.09522483E-03   7.58869387E-03   2.57917047E-02
  0.976562500       5.46875000E-02   2.37308489E-03   5.67197474E-03   2.58101560E-02
  0.992187500       5.46875000E-02   5.79001207E-04   2.36181589E-03   2.58853883E-02
   7.81250000E-03   7.03125000E-02   1.69631938E-04  -1.48154818E-03   2.43609473E-02
   2.34375000E-02   7.03125000E-02   5.77881699E-04  -2.81848921E-03   2.43651513E-02
   3.90625000E-02   7.03125000E-02   9.49267240E-04  -2.93826824E-03   2.43357904E-02
   5.46875000E-02   7.03125000E-02   9.94699425E-04  -2.19416432E-03   2.42777728E-02
   7.03125000E-02   7.03125000E-02   5.20708039E-04  -8.70025426E-04   2.41960809E-02
   8.59375000E-02   7.03125000E-02  -6.02276647E-04   8.13303166E-04   2.40954198E-02
  0.101562500       7.03125000E-02  -2.44281720E-03   2.68754759E-03   2.39784606E-02
  0.117187500       7.03125000E-02  -5.03023947E-03   4.63501364E-03   2.38474198E-02
  0.132812500       7.03125000E-02  -8.37853365E-03   6.59332937E-03   2.37021819E-02
  0.148437500       7.03125000E-02  -1.24885747E-02   8.53650272E-03   2.35417672E-02
  0.164062500       7.03125000E-02  -1.73528269E-02   1.04589611E-02   2.33642831E-02
  0.179687500       7.03125000E-02  -2.29557678E-02   1.23638576E-02   2.31675804E-02
  0.195312500       7.03125000E-02  -2.92722695E-02   1.42513197E-02   2.29495540E-02
  0.210937500       7.03125000E-02  -3.62658240E-02   1.61130428E-02   2.27084868E-02
  0.226562500       7.03125000E-02  -4.38868329E-02   1.79302115E-02   2.24433038E-02
  0.242187500       7.03125000E-02  -5.20718247E-02   1.96745936E-02   2.21537836E-02
  0.257812500       7.03125000E-02  -6.07436299E-02   2.13111490E-02   2.18407437E-02
  0.273437500       7.03125000E-02  -6.98123947E-02   2.28009745E-02   2.15062145E-02
  0.289062500       7.03125000E-02  -7.91772380E-02   2.41039880E-02   2.11535655E-02
  0.304687500       7.03125000E-02  -8.87284055E-02   2.51812153E-02   2.07876414E-02
  0.320312500       7.03125000E-02  -9.83496904E-02   2.59964131E-02   2.04148348E-02
  0.335937500       7.03125000E-02 -0.107920945       2.65173968E-02   2.00430732E-02
  0.351562500       7.03125000E-02 -0.117320582       2.67167222E-02   1.96817741E-02
  0.367187500       7.03125000E-02 -0.126427889       2.65723951E-02   1.93416961E-02
  0.382812500       7.03125000E-02 -0.135125130       2.60680914E-02   1.90346837E-02
  0.398437500       7.03125000E-02 -0.143299371       2.51932442E-02   1.87733844E-02
  0.414062500       7.03125000E-02 -0.150844052       2.39429325E-02   1.85708795E-02
  0.429687500       7.03125000E-02 -0.157660156       2.23176740E-02   1.84401739E-02
  0.445312500       7.03125000E-02 -0.163657084       2.03230567E-02   1.83937568E-02
  0.460937500       7.03125000E-02 -0.168753371       1.79693922E-02   1.84430741E-02
  0.476562500       7.03125000E-02 -0.172876924       1.52712762E-02   1.85980164E-02
  0.492187500       7.03125000E-02 -0.175965130       1.22472867E-02   1.88663527E-02
  0.507812500       7.03125000E-02 -0.177964687       8.91969725E-03   1.92533322E-02
  0.523437500       7.03125000E-02 -0.178830713       5.31443115E-03   1.97613966E-02
  0.539062500       7.03125000E-02 -0.178524822       1.46148726E-03   2.03903057E-02
  0.554687500       7.03125000E-02 -0.177008018      -2.60339980E-03   2.11128220E-02
  0.570312500       7.03125000E-02 -0.174267650      -6.86922111E-03   2.19203774E-02
  0.585937500       7.03125000E-02 -0.170319036      -1.12506486E-02   2.28006989E-02
  0.601562500       7.03125000E-02 -0.165181294      -1.56718381E-02   2.37313304E-02
  0.617187500       7.03125000E-02 -0.158883691      -2.00504959E-02   2.46858895E-02
  0.632812500       7.03125000E-02 -0.151466131      -2.42961496E-02   2.56348252E-02
  0.648437500       7.03125000E-02 -0.142981231      -2.83097439E-02   2.65464224E-02
  0.664062500       7.03125000E-02 -0.133496761      -3.19833569E-02   2.73879934E-02
  0.679687500       7.03125000E-02 -0.123098597      -3.52003202E-02   2.81276330E-02
  0.695312500       7.03125000E-02 -0.111893810      -3.78363356E-02   2.87361983E-02
  0.710937500       7.03125000E-02 -0.100013718      -3.97618897E-02   2.91896481E-02
  0.726562500       7.03125000E-02  -8.76169652E-02  -4.08466384E-02   2.94714272E-02
  0.742187500       7.03125000E-02  -7.48920888E-02  -4.09660935E-02   2.95746140E-02
  0.757812500       7.03125000E-02  -6.20592274E-02  -4.00112979E-02   2.95037962E-02
  0.773437500       7.03125000E-02  -4.93701771E-02  -3.79019827E-02   2.92758998E-02
  0.789062500       7.03125000E-02  -3.71053927E-02  -3.46036330E-02   2.89198179E-02
  0.804687500       7.03125000E-02  -2.55664941E-02  -3.01490128E-02   2.84743346E-02
  0.820312500       7.03125000E-02  -1.50638260E-02  -2.46657785E-02   2.79839486E-02
  0.835937500       7.03125000E-02  -5.90325333E-03  -1.84115600E-02   2.74931304E-02
  0.851562500       7.03125000E-02   1.58976228E-03  -1.18390303E-02   2.70345509E-02
  0.867187500       7.03125000E-02   7.06495810E-03  -5.44792553E-03   2.66297683E-02
  0.882812500       7.03125000E-02   1.04011316E-02   1.87180442E-04   2.62998268E-02
  0.898437500       7.03125000E-02   1.17617864E-02   4.76735877E-03   2.60512885E-02
  0.914062500       7.03125000E-02   1.14618009E-02   8.15887097E-03   2.58720256E-02
  0.929687500       7.03125000E-02   9.91488807E-03   1.03189144E-02   2.57532503E-02
  0.945312500       7.03125000E-02   7.54924864E-03   1.11528812E-02   2.56857891E-02
  0.960937500       7.03125000E-02   4.82738670E-03   1.04848202E-02   2.56634168E-02
  0.976562500       7.03125000E-02   2.27859174E-03   8.04628991E-03   2.56858002E-02
  0.992187500       7.03125000E-02   5.59554028E-04   3.50019243E-03   2.57607941E-02
   7.81250000E-03   8.59375000E-02   9.15583951E-05  -1.74298999E-03   2.44920142E-02
   2.34375000E-02   8.59375000E-02   2.18033121E-04  -3.09234532E-03   2.44804807E-02
   3.90625000E-02   8.59375000E-02   7.70877523E-05  -2.89549539E-03   2.44389419E-02
   5.46875000E-02   8.59375000E-02  -5.85194328E-04  -1.62072270E-03   2.43723020E-02
   7.03125000E-02   8.59375000E-02  -1.93374569E-03   3.78440658E-04   2.42858734E-02
   8.59375000E-02   8.59375000E-02  -4.05810308E-03   2.81154015E-03   2.41823923E-02
  0.101562500       8.59375000E-02  -6.99746236E-03   5.46858180E-03   2.40654740E-02
  0.117187500       8.59375000E-02  -1.07719302E-02   8.21524113E-03   2.39358302E-02
  0.132812500       8.59375000E-02  -1.53854843E-02   1.09743150E-02   2.37925146E-02
  0.148437500       8.59375000E-02  -2.08296850E-02   1.37091260E-02   2.36333702E-02
  0.164062500       8.59375000E-02  -2.70844139E-02   1.64046884E-02   2.34554261E-02
  0.179687500       8.59375000E-02  -3.41168307E-02   1.90528575E-02   2.32554153E-02
  0.195312500       8.59375000E-02  -4.18797620E-02   2.16411278E-02   2.30302196E-02
  0.210937500       8.59375000E-02  -5.03108017E-02   2.41472237E-02   2.27772277E-02
  0.226562500       8.59375000E-02  -5.93324304E-02   2.65380703E-02   2.24946439E-02
  0.242187500       8.59375000E-02  -6.88531548E-02   2.87718680E-02   2.21817307E-02
  0.257812500       8.59375000E-02  -7.87694752E-02   3.08014452E-02   2.18390096E-02
  0.273437500       8.59375000E-02  -8.89684111E-02   3.25778164E-02   2.14684512E-02
  0.289062500       8.59375000E-02  -9.93302166E-02   3.40532362E-02   2.10736431E-02
  0.304687500       8.59375000E-02 -0.109731168       3.51835564E-02   2.06598938E-02
  0.320312500       8.59375000E-02 -0.120046355       3.59300114E-02   2.02342793E-02
  0.335937500       8.59375000E-02 -0.130152076       3.62602845E-02   1.98055748E-02
  0.351562500       8.59375000E-02 -0.139928252       3.61491553E-02   1.93842500E-02
  0.367187500       8.59375000E-02 -0.149260223       3.55787612E-02   1.89821348E-02
  0.382812500       8.59375000E-02 -0.158040389       3.45386714E-02   1.86121985E-02
  0.398437500       8.59375000E-02 -0.166169435       3.30255106E-02   1.82882138E-02
  0.414062500       8.59375000E-02 -0.173557147       3.10426112E-02   1.80242620E-02