 VARIABLES="X","Y","U","V","P"
 ZONE F=POINT, I=          16 , J=          16
   3.12500000E-02   3.12500000E-02   1.01304438E-03  -1.01431040E-03   8.22642259E-03
   9.37500000E-02   3.12500000E-02   1.36183959E-03   6.62527629E-04   7.99609441E-03
  0.156250000       3.12500000E-02  -1.93341658E-03   2.62946542E-03   7.62729254E-03
  0.218750000       3.12500000E-02  -8.93221144E-03   4.36646026E-03   7.19249574E-03
  0.281250000       3.12500000E-02  -1.90212298E-02   5.72013389E-03   6.75696228E-03
  0.343750000       3.12500000E-02  -3.12196445E-02   6.47631474E-03   6.39997795E-03
  0.406250000       3.12500000E-02  -4.41707224E-02   6.47322088E-03   6.23326516E-03
  0.468750000       3.12500000E-02  -5.62840775E-02   5.63888578E-03   6.40324829E-03
  0.531250000       3.12500000E-02  -6.58962429E-02   3.97212524E-03   7.06924917E-03
  0.593750000       3.12500000E-02  -7.13817254E-02   1.51196052E-03   8.35654046E-03
  0.656250000       3.12500000E-02  -7.11839497E-02  -1.71167497E-03   1.02839665E-02
  0.718750000       3.12500000E-02  -6.36944547E-02  -5.78050222E-03   1.24253705E-02
  0.781250000       3.12500000E-02  -4.83405888E-02  -9.57682170E-03   1.42548196E-02
  0.843750000       3.12500000E-02  -2.73216441E-02  -1.14461286E-02   1.51319178E-02
  0.906250000       3.12500000E-02  -7.26225227E-03  -8.61739274E-03   1.48849534E-02
  0.968750000       3.12500000E-02   6.76552649E-04   6.75298041E-04   1.42581007E-02
   3.12500000E-02   9.37500000E-02  -2.28689844E-03   2.56343046E-04   8.45667813E-03
   9.37500000E-02   9.37500000E-02  -1.04669631E-02   7.21585192E-03   8.20298865E-03
  0.156250000       9.37500000E-02  -2.44249236E-02   1.33216185E-02   7.84248952E-03
  0.218750000       9.37500000E-02  -4.17345464E-02   1.79759711E-02   7.38199428E-03
  0.281250000       9.37500000E-02  -6.05598167E-02   2.10192874E-02   6.86406391E-03
  0.343750000       9.37500000E-02  -7.92543441E-02   2.20656786E-02   6.37246203E-03
  0.406250000       9.37500000E-02  -9.62164849E-02   2.07937658E-02   6.03509741E-03
  0.468750000       9.37500000E-02 -0.109846406       1.70591045E-02   6.01986004E-03
  0.531250000       9.37500000E-02 -0.118563473       1.08789373E-02   6.50750892E-03
  0.593750000       9.37500000E-02 -0.120850831       2.37536617E-03   7.63613079E-03
  0.656250000       9.37500000E-02 -0.115296684      -8.33076984E-03   9.34250653E-03
  0.718750000       9.37500000E-02 -0.101399198      -2.05538105E-02   1.13935638E-02
  0.781250000       9.37500000E-02  -7.98432827E-02  -3.17205042E-02   1.32288709E-02
  0.843750000       9.37500000E-02  -5.25695011E-02  -3.76037098E-02   1.42274266E-02
  0.906250000       9.37500000E-02  -2.42251754E-02  -3.08725089E-02   1.41783319E-02
  0.968750000       9.37500000E-02  -5.29494230E-03  -3.94608267E-03   1.36833945E-02
   3.12500000E-02  0.156250000      -6.08797418E-03   8.62717722E-03   8.75404384E-03
   9.37500000E-02  0.156250000      -2.14829985E-02   2.24112011E-02   8.38247314E-03
  0.156250000      0.156250000      -4.10842299E-02   3.16763557E-02   7.89853837E-03
  0.218750000      0.156250000      -6.18867725E-02   3.77257094E-02   7.25219911E-03
  0.281250000      0.156250000      -8.24592337E-02   4.06612381E-02   6.47244556E-03
  0.343750000      0.156250000     -0.101485148       4.01398838E-02   5.65754389E-03
  0.406250000      0.156250000     -0.117662877       3.58567536E-02   4.96821152E-03
  0.468750000      0.156250000     -0.129736036       2.76977420E-02   4.60988563E-03
  0.531250000      0.156250000     -0.136538744       1.57591701E-02   4.79169469E-03
  0.593750000      0.156250000     -0.137076735       3.19308892E-04   5.65619674E-03
  0.656250000      0.156250000     -0.130697995      -1.82098933E-02   7.21651269E-03
  0.718750000      0.156250000     -0.117099419      -3.81748304E-02   9.29665845E-03
  0.781250000      0.156250000      -9.62894633E-02  -5.64715154E-02   1.13717504E-02
  0.843750000      0.156250000      -6.90009743E-02  -6.74228892E-02   1.27965985E-02
  0.906250000      0.156250000      -3.78110334E-02  -6.05964363E-02   1.31665552E-02
  0.968750000      0.156250000      -1.08634587E-02  -2.01077666E-02   1.28017263E-02
   3.12500000E-02  0.218750000      -7.78449839E-03   2.24953834E-02   8.73665977E-03
   9.37500000E-02  0.218750000      -2.61645466E-02   4.23088148E-02   8.23685713E-03
  0.156250000      0.218750000      -4.76121604E-02   5.28185032E-02   7.53452396E-03
  0.218750000      0.218750000      -6.89434707E-02   5.87103106E-02   6.57710666E-03
  0.281250000      0.218750000      -8.90790969E-02   6.03798851E-02   5.41095994E-03
  0.343750000      0.218750000     -0.107113205       5.74787334E-02   4.16094158E-03
  0.406250000      0.218750000     -0.122139081       4.97210771E-02   3.02241324E-03
  0.468750000      0.218750000     -0.133276314       3.70449349E-02   2.23582238E-03
  0.531250000      0.218750000     -0.139707416       1.96476616E-02   2.03616126E-03
  0.593750000      0.218750000     -0.140737653      -1.99917261E-03   2.57708179E-03
  0.656250000      0.218750000     -0.135882035      -2.71249935E-02   3.97401815E-03
  0.718750000      0.218750000     -0.124636784      -5.41045442E-02   6.11817464E-03
  0.781250000      0.218750000     -0.106352776      -7.96389803E-02   8.55284650E-03
  0.843750000      0.218750000      -8.05975571E-02  -9.73044857E-02   1.06082214E-02
  0.906250000      0.218750000      -4.81821634E-02  -9.43270475E-02   1.16302008E-02
  0.968750000      0.218750000      -1.52696921E-02  -4.62437086E-02   1.15134632E-02
   3.12500000E-02  0.281250000      -7.58549944E-03   3.78612317E-02   8.11215769E-03
   9.37500000E-02  0.281250000      -2.55353320E-02   6.32639825E-02   7.52165541E-03
  0.156250000      0.281250000      -4.62737158E-02   7.40410611E-02   6.59321994E-03
  0.218750000      0.281250000      -6.64204508E-02   7.89600983E-02   5.30274445E-03
  0.281250000      0.281250000      -8.50612074E-02   7.89036453E-02   3.72628076E-03
  0.343750000      0.281250000     -0.101612225       7.35400990E-02   2.01708218E-03
  0.406250000      0.281250000     -0.115505993       6.25818521E-02   3.99626239E-04
  0.468750000      0.281250000     -0.126156092       4.59757708E-02  -8.56770261E-04
  0.531250000      0.281250000     -0.132955760       2.39527449E-02  -1.48985116E-03
  0.593750000      0.281250000     -0.135315686      -2.90895975E-03  -1.32038037E-03
  0.656250000      0.281250000     -0.132773191      -3.36092114E-02  -1.55595655E-04
  0.718750000      0.281250000     -0.124708772      -6.69276714E-02   2.00862158E-03
  0.781250000      0.281250000     -0.109983861      -9.98247787E-02   4.80368454E-03
  0.843750000      0.281250000      -8.70779082E-02 -0.125782251       7.55991088E-03
  0.906250000      0.281250000      -5.51266000E-02 -0.130220383       9.37691703E-03
  0.968750000      0.281250000      -1.84393339E-02  -7.99548328E-02   9.63301025E-03
   3.12500000E-02  0.343750000      -6.14063255E-03   5.15837520E-02   6.86201779E-03
   9.37500000E-02  0.343750000      -2.13671364E-02   8.27102363E-02   6.23211870E-03
  0.156250000      0.343750000      -3.95985544E-02   9.35580283E-02   5.12539409E-03
  0.218750000      0.343750000      -5.72773702E-02   9.72650349E-02   3.55282216E-03
  0.281250000      0.343750000      -7.35156685E-02   9.54773948E-02   1.61559181E-03
  0.343750000      0.343750000      -8.79535079E-02   8.79580304E-02  -5.12527651E-04
  0.406250000      0.343750000     -0.100298025       7.44077265E-02  -2.58689118E-03
  0.468750000      0.343750000     -0.110216044       5.47254123E-02  -4.31396766E-03
  0.531250000      0.343750000     -0.117292047       2.90870145E-02  -5.39884204E-03
  0.593750000      0.343750000     -0.121045619      -1.92161929E-03  -5.61958598E-03
  0.656250000      0.343750000     -0.121069305      -3.71083617E-02  -4.75935498E-03
  0.718750000      0.343750000     -0.116756707      -7.58003443E-02  -2.67753005E-03
  0.781250000      0.343750000     -0.106615983     -0.115814790       3.63677391E-04
  0.843750000      0.343750000      -8.80554095E-02 -0.151258230       3.74542456E-03
  0.906250000      0.343750000      -5.84957078E-02 -0.166257098       6.37856591E-03
  0.968750000      0.343750000      -2.03541312E-02 -0.118749566       7.09608523E-03
   3.12500000E-02  0.406250000      -4.02119197E-03   6.17427789E-02   5.18894102E-03
   9.37500000E-02  0.406250000      -1.51699819E-02   9.89208221E-02   4.56328876E-03
  0.156250000      0.406250000      -2.96748430E-02  0.110079341       3.34653305E-03
  0.218750000      0.406250000      -4.38925475E-02  0.112638935       1.57918967E-03
  0.281250000      0.406250000      -5.68617731E-02  0.109313183      -6.24091772E-04
  0.343750000      0.406250000      -6.83721304E-02  0.100075915      -3.08167050E-03
  0.406250000      0.406250000      -7.83735290E-02   8.46439376E-02  -5.53933904E-03
  0.468750000      0.406250000      -8.68113637E-02   6.28549904E-02  -7.68520078E-03
  0.531250000      0.406250000      -9.35504884E-02   3.47831473E-02  -9.18966718E-03
  0.593750000      0.406250000      -9.83474404E-02   9.42960789E-04  -9.77808610E-03
  0.656250000      0.406250000     -0.100909516      -3.73782367E-02  -9.26284771E-03
  0.718750000      0.406250000     -0.100768872      -7.99765736E-02  -7.39065278E-03
  0.781250000      0.406250000      -9.62279290E-02 -0.126315176      -4.30335244E-03
  0.843750000      0.406250000      -8.35789144E-02 -0.171964630      -4.97965259E-04
  0.906250000      0.406250000      -5.83971180E-02 -0.200291544       2.85186013E-03
  0.968750000      0.406250000      -2.10751481E-02 -0.160179332       4.06643841E-03
   3.12500000E-02  0.468750000      -1.73443765E-03   6.74964786E-02   3.37369833E-03
   9.37500000E-02  0.468750000      -8.23922828E-03  0.110816941       2.79435609E-03
  0.156250000      0.468750000      -1.82780717E-02  0.122724622       1.54535740E-03
  0.218750000      0.468750000      -2.83615403E-02  0.124295607      -3.09689902E-04
  0.281250000      0.468750000      -3.73649001E-02  0.119633362      -2.65501044E-03
  0.343750000      0.468750000      -4.51641306E-02  0.109072849      -5.31336246E-03
  0.406250000      0.468750000      -5.19223250E-02   9.24167037E-02  -8.03141575E-03
  0.468750000      0.468750000      -5.78893125E-02   6.94986582E-02  -1.04873795E-02
  0.531250000      0.468750000      -6.33312166E-02   4.03324105E-02  -1.23226838E-02
  0.593750000      0.468750000      -6.84397817E-02   5.31033287E-03  -1.32074496E-02
  0.656250000      0.468750000      -7.31900483E-02  -3.44236344E-02  -1.30247250E-02
  0.718750000      0.468750000      -7.74199516E-02  -7.88340420E-02  -1.14761451E-02
  0.781250000      0.468750000      -7.93550834E-02 -0.130057469      -8.57866090E-03
  0.843750000      0.468750000      -7.40876794E-02 -0.186134636      -4.62874305E-03
  0.906250000      0.468750000      -5.51564880E-02 -0.230232313      -7.47227750E-04
  0.968750000      0.468750000      -2.07309462E-02 -0.201985285       9.51930357E-04
   3.12500000E-02  0.531250000       2.15762600E-04   6.90139234E-02   1.65629142E-03
   9.37500000E-02  0.531250000      -1.76960893E-03  0.117787361       1.19275937E-03
  0.156250000      0.531250000      -6.97833532E-03  0.131000966      -3.97963959E-06
  0.218750000      0.531250000      -1.25953499E-02  0.131721944      -1.82508596E-03
  0.281250000      0.531250000      -1.72217600E-02  0.125842378      -4.17068228E-03
  0.343750000      0.531250000      -2.07794309E-02  0.114229456      -6.87748054E-03
  0.406250000      0.531250000      -2.36012153E-02   9.68511775E-02  -9.70012695E-03
  0.468750000      0.531250000      -2.61867121E-02   7.36290067E-02  -1.23152584E-02
  0.531250000      0.531250000      -2.92116925E-02   4.46811616E-02  -1.43496767E-02
  0.593750000      0.531250000      -3.35511528E-02   1.04205795E-02  -1.54350530E-02
  0.656250000      0.531250000      -3.97494659E-02  -2.85760611E-02  -1.54992417E-02
  0.718750000      0.531250000      -4.81316969E-02  -7.20619336E-02  -1.43404435E-02
  0.781250000      0.531250000      -5.70187271E-02 -0.126001447      -1.18387528E-02
  0.843750000      0.531250000      -6.02827296E-02 -0.192189664      -8.02230090E-03
  0.906250000      0.531250000      -4.92077060E-02 -0.254180670      -3.80260893E-03
  0.968750000      0.531250000      -1.94764566E-02 -0.242192209      -1.64098351E-03
   3.12500000E-02  0.593750000       1.64102914E-03   6.71562850E-02   2.41407062E-04
   9.37500000E-02  0.593750000       3.33021604E-03  0.119939670      -1.07666681E-04
  0.156250000      0.593750000       2.71661486E-03  0.134670839      -1.10752089E-03
  0.218750000      0.593750000       1.72604434E-03  0.134662271      -2.75668409E-03
  0.281250000      0.593750000       1.65090908E-03  0.127609402      -4.95753763E-03
  0.343750000      0.593750000       2.55519850E-03  0.115124665      -7.56249158E-03
  0.406250000      0.593750000       3.93394800E-03   9.74101573E-02  -1.03353923E-02
  0.468750000      0.593750000       5.09459805E-03   7.45071173E-02  -1.29553173E-02
  0.531250000      0.593750000       5.17625920E-03   4.67582569E-02  -1.50496624E-02
  0.593750000      0.593750000       2.80655129E-03   1.50629301E-02  -1.62444562E-02
  0.656250000      0.593750000      -3.73484846E-03  -2.04702131E-02  -1.64318550E-02
  0.718750000      0.593750000      -1.53516736E-02  -6.01618476E-02  -1.56625770E-02
  0.781250000      0.593750000      -3.06615159E-02 -0.113699451      -1.36452001E-02
  0.843750000      0.593750000      -4.29162905E-02 -0.188969150      -1.01348851E-02
  0.906250000      0.593750000      -4.08959575E-02 -0.270494103      -5.64411655E-03
  0.968750000      0.593750000      -1.74182057E-02 -0.279086530      -2.95571494E-03
   3.12500000E-02  0.656250000       2.39414349E-03   6.31203204E-02  -8.03191157E-04
   9.37500000E-02  0.656250000       6.50305860E-03  0.118176043      -1.01492705E-03
  0.156250000      0.656250000       9.77740623E-03  0.133773267      -1.72105501E-03
  0.218750000      0.656250000       1.34120919E-02  0.132917687      -3.05414805E-03
  0.281250000      0.656250000       1.81107409E-02  0.124735519      -4.99981781E-03
  0.343750000      0.656250000       2.35592201E-02  0.111653849      -7.42042204E-03
  0.406250000      0.656250000       2.89330594E-02   9.41387862E-02  -1.00648645E-02
  0.468750000      0.656250000       3.32215242E-02   7.23409206E-02  -1.25878239E-02
  0.531250000      0.656250000       3.53086442E-02   4.67669293E-02  -1.45984152E-02
  0.593750000      0.656250000       3.40931118E-02   1.86492093E-02  -1.57498792E-02
  0.656250000      0.656250000       2.83120014E-02  -1.17261196E-02  -1.58462040E-02
  0.718750000      0.656250000       1.68239549E-02  -4.57950756E-02  -1.52700217E-02
  0.781250000      0.656250000      -1.99792301E-03  -9.39305425E-02  -1.38733806E-02
  0.843750000      0.656250000      -2.24004965E-02 -0.176078409      -1.06318658E-02
  0.906250000      0.656250000      -3.00932825E-02 -0.277711451      -5.60850324E-03
  0.968750000      0.656250000      -1.44676780E-02 -0.310972631      -2.04085908E-03
   3.12500000E-02  0.718750000       2.02808948E-03   5.86970598E-02  -1.55208609E-03
   9.37500000E-02  0.718750000       6.81320811E-03  0.113703087      -1.54978083E-03
  0.156250000      0.718750000       1.32958181E-02  0.128487706      -1.80779793E-03
  0.218750000      0.718750000       2.16894858E-02  0.126175389      -2.70047341E-03
  0.281250000      0.718750000       3.14929001E-02  0.116979137      -4.32708021E-03
  0.343750000      0.718750000       4.16251682E-02  0.103835948      -6.54676044E-03
  0.406250000      0.718750000       5.08415028E-02   8.73754919E-02  -9.06887464E-03
  0.468750000      0.718750000       5.78460619E-02   6.78215772E-02  -1.15075568E-02
  0.531250000      0.718750000       6.13384098E-02   4.57172021E-02  -1.34461001E-02
  0.593750000      0.718750000       6.01651371E-02   2.20968686E-02  -1.45328231E-02
  0.656250000      0.718750000       5.34323603E-02  -2.65276060E-03  -1.45838568E-02
  0.718750000      0.718750000       4.11691181E-02  -3.11122481E-02  -1.38723869E-02
  0.781250000      0.718750000       2.41696574E-02  -7.27894902E-02  -1.22357747E-02
  0.843750000      0.718750000       1.88914547E-03 -0.154536128      -9.30977333E-03
  0.906250000      0.718750000      -1.54386200E-02 -0.274234772      -2.97160912E-03
  0.968750000      0.718750000      -1.00372070E-02 -0.335478753       2.53463979E-03
   3.12500000E-02  0.781250000      -6.39127451E-04   5.73066138E-02  -2.18097842E-03
   9.37500000E-02  0.781250000       2.45311810E-03  0.107212797      -1.69382186E-03
  0.156250000      0.781250000       1.23809874E-02  0.118564159      -1.32936600E-03
  0.218750000      0.781250000       2.62625143E-02  0.113821924      -1.67846645E-03
  0.281250000      0.781250000       4.18629795E-02  0.103929617      -2.98689189E-03
  0.343750000      0.781250000       5.70535436E-02   9.15667564E-02  -5.06811356E-03
  0.406250000      0.781250000       7.02451468E-02   7.72437155E-02  -7.55525054E-03
  0.468750000      0.781250000       8.00611824E-02   6.11415133E-02  -1.00036757E-02
  0.531250000      0.781250000       8.52727517E-02   4.37024459E-02  -1.19631626E-02
  0.593750000      0.781250000       8.49312544E-02   2.56345198E-02  -1.30648119E-02
  0.656250000      0.781250000       7.84768611E-02   7.00289849E-03  -1.31012676E-02
  0.718750000      0.781250000       6.62233084E-02  -1.62472855E-02  -1.22540137E-02
  0.781250000      0.781250000       4.93965223E-02  -5.38271591E-02  -1.00218421E-02
  0.843750000      0.781250000       2.92833708E-02 -0.131107122      -5.18549280E-03
  0.906250000      0.781250000       6.92914519E-03 -0.257986963       3.63499043E-03
  0.968750000      0.781250000      -2.34300480E-03 -0.347861707       1.34282177E-02
   3.12500000E-02  0.843750000      -6.26783259E-03   6.42115101E-02  -2.88763433E-03
   9.37500000E-02  0.843750000      -7.56155653E-03   9.85043645E-02  -1.53293461E-03
  0.156250000      0.843750000       7.55959516E-03  0.102217644      -2.58151180E-04
  0.218750000      0.843750000       2.92779543E-02   9.45635736E-02  -1.45765280E-05
  0.281250000      0.843750000       5.20249531E-02   8.48381817E-02  -1.10146380E-03
  0.343750000      0.843750000       7.30933100E-02   7.44004771E-02  -3.18191084E-03
  0.406250000      0.843750000       9.09847245E-02   6.33315071E-02  -5.77196758E-03
  0.468750000      0.843750000      0.104589999       5.16392291E-02  -8.35841428E-03
  0.531250000      0.843750000      0.113049284       3.95414233E-02  -1.04562351E-02
  0.593750000      0.843750000      0.115875714       2.73174606E-02  -1.16737587E-02
  0.656250000      0.843750000      0.113134347       1.45207169E-02  -1.17695434E-02
  0.718750000      0.843750000      0.104692176      -3.06692207E-03  -1.06112752E-02
  0.781250000      0.843750000       9.16783139E-02  -3.71679664E-02  -7.36938370E-03
  0.843750000      0.843750000       7.32692033E-02 -0.109249584       1.18594058E-03
  0.906250000      0.843750000       4.37218808E-02 -0.227952510       1.76956374E-02
  0.968750000      0.843750000       1.26484660E-02 -0.337560952       3.63882408E-02
   3.12500000E-02  0.906250000      -1.14293564E-02   8.19058269E-02  -5.00458432E-03
   9.37500000E-02  0.906250000      -1.17251957E-02   8.23923051E-02  -1.15166616E-03
  0.156250000      0.906250000       1.65928602E-02   7.48812705E-02   1.46056863E-03
  0.218750000      0.906250000       5.07497191E-02   6.60160482E-02   2.22276268E-03
  0.281250000      0.906250000       8.32480639E-02   5.81345037E-02   1.15882570E-03
  0.343750000      0.906250000      0.112403244       5.08788005E-02  -1.09207351E-03
  0.406250000      0.906250000      0.137482911       4.38841805E-02  -3.91389709E-03
  0.468750000      0.906250000      0.157993168       3.69758904E-02  -6.73735095E-03
  0.531250000      0.906250000      0.173600793       3.01438645E-02  -9.05174483E-03
  0.593750000      0.906250000      0.184174865       2.33200900E-02  -1.04309618E-02
  0.656250000      0.906250000      0.189844429       1.55937495E-02  -1.05188852E-02
  0.718750000      0.906250000      0.191610634       2.53686216E-03  -8.88028927E-03
  0.781250000      0.906250000      0.188433379      -2.65842434E-02  -3.15662823E-03
  0.843750000      0.906250000      0.170203969      -8.32038075E-02   1.23034343E-02
  0.906250000      0.906250000      0.120966069     -0.175226897       4.22762260E-02
  0.968750000      0.906250000       4.33287248E-02 -0.281590402       8.04748461E-02
   3.12500000E-02  0.968750000       4.66654897E-02   4.66667488E-02  -1.20734023E-02
   9.37500000E-02  0.968750000      0.128956661       3.56280766E-02   8.12548446E-04
  0.156250000      0.968750000      0.193426609       2.88469195E-02   4.84909955E-03
  0.218750000      0.968750000      0.246789247       2.45206505E-02   5.36237936E-03
  0.281250000      0.968750000      0.292609721       2.13035438E-02   3.88437090E-03
  0.343750000      0.968750000      0.332535982       1.86246913E-02   1.24712067E-03
  0.406250000      0.968750000      0.367377609       1.62171908E-02  -1.90907659E-03
  0.468750000      0.968750000      0.397554517       1.39587028E-02  -5.01874089E-03
  0.531250000      0.968750000      0.423313498       1.17986836E-02  -7.57479994E-03
  0.593750000      0.968750000      0.444761246       9.64750163E-03  -9.11543053E-03
  0.656250000      0.968750000      0.461385131       6.97546359E-03  -9.01893154E-03
  0.718750000      0.968750000      0.469566882       1.20675215E-03  -5.33224037E-03
  0.781250000      0.968750000      0.459128231      -1.16430242E-02   5.58817340E-03
  0.843750000      0.968750000      0.413341910      -3.41389552E-02   2.90398411E-02
  0.906250000      0.968750000      0.308735400      -7.04613775E-02   7.23823011E-02
  0.968750000      0.968750000      0.119135253     -0.119132698      0.136283442    
